Gromacs Runs On Most of All Computer Systems in water
11537
    1MEOH    CM    1   1.812   3.156   4.893 -0.0234 -0.7118  0.0326
    1MEOH    OM    2   1.822   3.176   4.752 -0.1633 -0.2475 -0.4432
    1MEOH    HO    3   1.914   3.196   4.727  0.5344 -2.2268  0.4466
    1MEOH   HM1    4   1.713   3.114   4.910 -1.4651  2.1255 -0.9146
    1MEOH   HM2    5   1.818   3.255   4.940  1.1446 -0.3886 -0.7731
    1MEOH   HM3    6   1.890   3.089   4.930 -0.7316 -1.2348  0.5732
    2MMP      P    7   2.137   3.348   4.694 -0.0513 -0.4369 -0.3777
    2MMP    OME    8   2.255   3.320   4.800  0.1277  0.4178  0.0777
    2MMP    OOH    9   2.015   3.427   4.753  0.3794  0.3605 -0.8301
    2MMP     O1   10   2.071   3.217   4.656 -0.2801 -0.6351 -0.3976
    2MMP     O2   11   2.188   3.433   4.585 -0.4204  0.0007 -0.0978
    2MMP     CM   12   2.223   3.253   4.918  0.2469 -0.0381 -0.2893
    2MMP    HM1   13   2.277   3.159   4.933  0.9546  0.5173  0.7071
    2MMP    HM2   14   2.115   3.240   4.920  0.1155  0.5666 -2.3916
    2MMP    HM3   15   2.249   3.314   5.005 -1.6490  0.2482  0.1006
    2MMP     HO   16   2.042   3.502   4.807 -0.5670  0.2968 -0.2353
    3NA      NA   17   0.937   0.108   0.443 -0.0139 -0.0228 -0.0259
    4SOL     OW   18   0.436   4.550   0.194  0.2738  0.2450  0.4511
    4SOL    HW2   19   0.418   4.586   0.108 -1.0617 -1.7387 -0.1416
    4SOL    HW3   20   0.367   4.586   0.250 -0.6524 -0.8028  0.0086
    4SOL    MW4   21   0.425   4.560   0.190 -0.0246 -0.1550  0.3145
    5SOL     OW   22   4.164   0.042   0.369 -0.0396  0.3317  0.2124
    5SOL    HW2   23   4.259   0.039   0.380  0.1907  0.7928 -1.5055
    5SOL    HW3   24   4.134  -0.045   0.395  0.6721  0.6454  2.1811
    5SOL    MW4   25   4.172   0.030   0.374  0.0847  0.4339  0.2455
    6SOL     OW   26   4.007   0.188   0.565 -0.2169 -0.0333  0.0110
    6SOL    HW2   27   4.063   0.147   0.499 -0.1625 -0.0693  0.0796
    6SOL    HW3   28   3.919   0.156   0.544  0.1966 -2.5139  1.7958
    6SOL    MW4   29   4.003   0.178   0.553 -0.1552 -0.3653  0.2555
    7SOL     OW   30   0.208   2.028   0.276 -0.2247  0.2697 -0.3988
    7SOL    HW2   31   0.174   1.999   0.360 -0.6333  2.0232  0.0696
    7SOL    HW3   32   0.293   1.985   0.268 -1.7617 -2.7847 -0.7840
    7SOL    MW4   33   0.215   2.019   0.286 -0.4814  0.0981 -0.3878
    8SOL     OW   34   0.892   0.746   0.498 -0.0186  0.7276 -0.1971
    8SOL    HW2   35   0.888   0.798   0.579 -1.1501  0.6089 -0.1558
    8SOL    HW3   36   0.965   0.686   0.511 -1.0444 -0.2493  1.3507
    8SOL    MW4   37   0.901   0.745   0.510 -0.3032  0.5830  0.0126
    9SOL     OW   38   0.462   0.605   0.395 -0.1318  0.2960 -0.4762
    9SOL    HW2   39   0.426   0.688   0.427 -0.1409  1.2220 -2.7996
    9SOL    HW3   40   0.389   0.543   0.402 -0.4872  0.7788  0.1387
    9SOL    MW4   41   0.448   0.608   0.400 -0.1799  0.4819 -0.7016
   10SOL     OW   42   1.013   0.442   0.262 -0.1567 -0.0353 -0.3599
   10SOL    HW2   43   0.937   0.389   0.287 -0.0021 -0.0361  0.1122
   10SOL    HW3   44   0.975   0.517   0.216 -0.5416  0.6040  0.9694
   10SOL    MW4   45   0.998   0.445   0.259 -0.1871  0.0489 -0.1222
   11SOL     OW   46   0.742   0.814   0.280  0.0015 -0.1032  0.1485
   11SOL    HW2   47   0.688   0.736   0.268 -0.4085  0.1766  0.1480
   11SOL    HW3   48   0.814   0.786   0.336 -0.6382 -0.2530  0.8955
   11SOL    MW4   49   0.744   0.800   0.286 -0.1370 -0.0860  0.2470
   12SOL     OW   50   0.616   1.015   0.402  0.3237  0.4065 -0.1253
   12SOL    HW2   51   0.579   1.068   0.332 -0.4321  0.6812  0.4759
   12SOL    HW3   52   0.657   0.941   0.357 -0.7316  0.2277 -0.8212
   12SOL    MW4   53   0.617   1.012   0.387  0.0847  0.4191 -0.1378
   13SOL     OW   54   4.091   0.786   0.408 -0.3078 -0.1082  0.2000
   13SOL    HW2   55   4.044   0.709   0.375 -1.3905  0.5001  0.2740
   13SOL    HW3   56   4.021   0.845   0.438  0.5308  0.6947  0.5901
   13SOL    MW4   57   4.075   0.784   0.407 -0.3400  0.0780  0.2613
   14SOL     OW   58   0.431   1.193   0.219  0.2611 -0.3751 -0.0707
   14SOL    HW2   59   0.433   1.136   0.142 -1.2773  0.8334 -1.0338
   14SOL    HW3   60   0.369   1.151   0.278 -0.8359  0.2465 -0.7599
   14SOL    MW4   61   0.423   1.180   0.216 -0.0866 -0.1336 -0.2887
   15SOL     OW   62   0.126   2.287   0.218 -0.0793  0.2591  0.0278
   15SOL    HW2   63   0.125   2.279   0.123  0.0420  0.2038  0.0312
   15SOL    HW3   64   0.155   2.201   0.250  0.9614  0.6118  0.0709
   15SOL    MW4   65   0.130   2.275   0.210  0.0740  0.2984  0.0339
   16SOL     OW   66   0.192   2.532   0.368 -0.0225 -0.3120 -0.0809
   16SOL    HW2   67   0.284   2.520   0.389  0.7629  1.5486 -2.3032
   16SOL    HW3   68   0.170   2.456   0.313  1.2374  1.1227 -2.6677
   16SOL    MW4   69   0.201   2.520   0.363  0.2474  0.1227 -0.7154
   17SOL     OW   70   4.263   2.762   0.510  0.1767 -0.3952 -0.3721
   17SOL    HW2   71   4.321   2.687   0.519  1.6220  0.6162 -1.0264
   17SOL    HW3   72   4.322   2.838   0.508 -1.3046  0.8663  1.4465
   17SOL    MW4   73   4.278   2.762   0.511  0.1720 -0.0953 -0.2185
   18SOL     OW   74   3.859   3.020   0.443 -0.1096  0.2889  0.1248
   18SOL    HW2   75   3.826   3.023   0.353 -0.7966 -0.1326  0.3552
   18SOL    HW3   76   3.899   2.933   0.451  3.6768  1.8654 -1.0395
   18SOL    MW4   77   3.860   3.009   0.432  0.2993  0.4413  0.0016
   19SOL     OW   78   0.211   3.507   0.535 -0.1787  0.3632  0.5546
   19SOL    HW2   79   0.288   3.513   0.478 -1.3235 -0.6681 -1.1503
   19SOL    HW3   80   0.155   3.579   0.507 -0.9602 -0.4403  0.0368
   19SOL    MW4   81   0.214   3.518   0.523 -0.4328  0.1211  0.2613
   20SOL     OW   82   0.540   3.223   0.472  0.1293  0.1320  0.2557
   20SOL    HW2   83   0.495   3.237   0.555  1.2222  0.4925  0.7957
   20SOL    HW3   84   0.516   3.300   0.419  1.3483  1.1123  1.0993
   20SOL    MW4   85   0.531   3.235   0.476  0.4343  0.3089  0.4382
   21SOL     OW   86   0.823   3.738   0.419 -0.0455  0.3135 -0.2535
   21SOL    HW2   87   0.797   3.829   0.428 -0.7690  0.2184 -1.3010
   21SOL    HW3   88   0.741   3.689   0.425  0.1960 -0.1795 -0.9138
   21SOL    MW4   89   0.809   3.743   0.421 -0.1091  0.2359 -0.4788
   22SOL     OW   90   3.815   3.397   0.457 -0.3534  0.3906  0.1301
   22SOL    HW2   91   3.818   3.434   0.546  1.7091  0.5534  0.0163
   22SOL    HW3   92   3.898   3.351   0.448 -0.9073 -0.3157 -1.4440
   22SOL    MW4   93   3.826   3.396   0.468 -0.1544  0.3189 -0.0926
   23SOL     OW   94   0.112   4.026   0.477  0.1371 -0.4569  0.2270
   23SOL    HW2   95   0.033   4.079   0.465  1.6839  1.5454 -1.5561
   23SOL    HW3   96   0.113   4.005   0.571 -1.7103  0.7433  0.5409
   23SOL    MW4   97   0.102   4.030   0.488  0.0974 -0.0344  0.0332
   24SOL     OW   98   0.189   4.381   0.450  0.5396 -0.4418  0.4721
   24SOL    HW2   99   0.270   4.331   0.437  0.6711  0.2410 -1.4878
   24SOL    HW3  100   0.120   4.326   0.413  0.7010  0.8231 -1.8153
   24SOL    MW4  101   0.191   4.367   0.444  0.5782 -0.1848 -0.0883
   25SOL     OW  102   0.437   4.288   0.352  0.0656 -0.4990  0.1146
   25SOL    HW2  103   0.524   4.286   0.392 -0.5668  0.3714  1.6114
   25SOL    HW3  104   0.438   4.366   0.297 -0.2785  0.4460  1.4104
   25SOL    MW4  105   0.449   4.298   0.350 -0.0632 -0.2595  0.4831
   26SOL     OW  106   0.180   4.630   0.345  0.5863 -0.3643  0.2745
   26SOL    HW2  107   0.093   4.669   0.352  0.5652 -0.5838  1.2920
   26SOL    HW3  108   0.169   4.542   0.382  1.3615 -0.2066  0.8757
   26SOL    MW4  109   0.167   4.623   0.351  0.6858 -0.3724  0.4881
   27SOL     OW  110   0.464   3.456   0.337  0.1472 -0.2731  0.1857
   27SOL    HW2  111   0.468   3.481   0.245 -0.2042  0.7782  0.4504
   27SOL    HW3  112   0.505   3.529   0.383 -1.8937  0.3502  1.0610
   27SOL    MW4  113   0.470   3.469   0.331 -0.1685 -0.0522  0.3361
   28SOL     OW  114   1.349   4.590   0.301  0.2770 -0.1088 -0.1248
   28SOL    HW2  115   1.390   4.510   0.335 -0.7767 -0.7798 -0.4050
   28SOL    HW3  116   1.368   4.588   0.207  0.8588  0.3439 -0.0197
   28SOL    MW4  117   1.357   4.579   0.293  0.2148 -0.1376 -0.1479
   29SOL     OW  118   0.341   0.191   0.420  0.4366 -0.0588 -0.1305
   29SOL    HW2  119   0.268   0.129   0.413  0.3694 -0.0291  0.2968
   29SOL    HW3  120   0.299   0.276   0.432  0.5296  0.0695 -0.6785
   29SOL    MW4  121   0.326   0.194   0.421  0.4400 -0.0379 -0.1465
   30SOL     OW  122   4.424   0.354   0.419  0.3288 -0.2579 -0.0369
   30SOL    HW2  123   4.391   0.365   0.508  0.8418 -0.5681  0.1943
   30SOL    HW3  124   4.346   0.355   0.364  0.1106  1.2134  0.2908
   30SOL    MW4  125   4.410   0.356   0.423  0.3677 -0.1047  0.0368
   31SOL     OW  126   1.169   4.313   0.500 -0.1085  0.1431  0.0506
   31SOL    HW2  127   1.152   4.319   0.595  0.7083  0.3575  0.1830
   31SOL    HW3  128   1.264   4.315   0.492 -0.1555 -0.4375 -0.7458
   31SOL    MW4  129   1.179   4.314   0.512 -0.0069  0.0948 -0.0370
   32SOL     OW  130   1.131   0.597   0.484 -0.4586 -0.3273  0.2221
   32SOL    HW2  131   1.104   0.541   0.410  0.9906 -0.2531 -0.3739
   32SOL    HW3  132   1.204   0.648   0.450 -0.2573  0.2482  1.4973
   32SOL    MW4  133   1.137   0.596   0.469 -0.2408 -0.2416  0.3117
   33SOL     OW  134   1.121   0.257   0.439  0.0798 -0.4855  0.0344
   33SOL    HW2  135   1.130   0.314   0.363 -1.8174  0.9300  0.8090
   33SOL    HW3  136   1.207   0.218   0.450  0.8892  0.7147 -1.7245
   33SOL    MW4  137   1.134   0.260   0.431 -0.0638 -0.1404 -0.0955
   34SOL     OW  138   0.397   0.865   0.516 -0.5451  0.2415 -0.0609
   34SOL    HW2  139   0.477   0.914   0.500 -1.2219  1.0388 -1.1097
   34SOL    HW3  140   0.397   0.849   0.611  0.5935  0.6585  0.0148
   34SOL    MW4  141   0.407   0.870   0.526 -0.4842  0.4017 -0.1893
   35SOL     OW  142   0.371   1.655   0.431  0.0170  0.4193 -0.1831
   35SOL    HW2  143   0.420   1.577   0.407  0.0733  0.3683  0.1009
   35SOL    HW3  144   0.279   1.629   0.424  0.0411  0.2169  0.2981
   35SOL    MW4  145   0.365   1.642   0.427  0.0276  0.3859 -0.0822
   36SOL     OW  146   4.458   1.717   0.554 -0.0618  0.3967 -0.3363
   36SOL    HW2  147   4.499   1.648   0.502 -0.3476 -0.2496  0.2760
   36SOL    HW3  148   4.480   1.694   0.645  0.2634  1.3936 -0.1593
   36SOL    MW4  149   4.467   1.705   0.559 -0.0566  0.4430 -0.2322
   37SOL     OW  150   0.470   2.451   0.471  0.1958  0.2952 -0.3924
   37SOL    HW2  151   0.458   2.358   0.454 -0.1147  0.7092 -2.6944
   37SOL    HW3  152   0.552   2.473   0.426 -0.7360  1.5079 -1.5467
   37SOL    MW4  153   0.479   2.442   0.463  0.0319  0.5098 -0.8484
   38SOL     OW  154   4.435   2.545   0.516  0.6779  0.0669  0.0321
   38SOL    HW2  155   4.517   2.561   0.469  0.9092 -0.6879  0.1745
   38SOL    HW3  156   4.461   2.537   0.608  0.4350 -0.0702  0.0897
   38SOL    MW4  157   4.450   2.546   0.522  0.6764 -0.0508  0.0585
   39SOL     OW  158   4.194   1.644   0.501 -0.5012  0.5963  0.2674
   39SOL    HW2  159   4.169   1.734   0.481 -0.0557  0.5041 -0.7354
   39SOL    HW3  160   4.289   1.648   0.516 -0.1307 -0.0385 -1.7864
   39SOL    MW4  161   4.204   1.656   0.500 -0.3935  0.5004 -0.1359
   40SOL     OW  162   0.714   2.537   0.377  0.0515  0.1554  0.5332
   40SOL    HW2  163   0.709   2.625   0.339 -0.4913 -0.1205 -0.0460
   40SOL    HW3  164   0.799   2.535   0.422  1.1419  0.1842 -1.4608
   40SOL    MW4  165   0.725   2.548   0.378  0.1237  0.1228  0.1937
   41SOL     OW  166   0.706   2.830   0.360 -0.0732 -0.2092  0.3832
   41SOL    HW2  167   0.624   2.874   0.384  0.3854  0.7942  0.1456
   41SOL    HW3  168   0.768   2.855   0.428 -0.1017 -1.4188  0.8638
   41SOL    MW4  169   0.703   2.839   0.372 -0.0164 -0.2364  0.4153
   42SOL     OW  170   4.443   3.004   0.498 -0.0949  0.0572 -0.6999
   42SOL    HW2  171   4.461   3.098   0.500 -0.7671  0.1739  0.0575
   42SOL    HW3  172   4.525   2.964   0.468  0.1732  0.8872 -1.0708
   42SOL    MW4  173   4.456   3.011   0.494 -0.1482  0.1821 -0.6489
   43SOL     OW  174   0.189   2.834   0.462 -0.1003  0.3703 -0.2010
   43SOL    HW2  175   0.285   2.838   0.462 -0.0330 -0.6374  0.7237
   43SOL    HW3  176   0.169   2.746   0.431 -0.7121  0.4908 -0.1555
   43SOL    MW4  177   0.199   2.823   0.458 -0.1722  0.2533 -0.0730
   44SOL     OW  178   0.766   4.607   0.424 -0.4600  0.0587 -0.3175
   44SOL    HW2  179   0.691   4.627   0.368 -1.9426  0.1312  1.6555
   44SOL    HW3  180   0.766   4.511   0.431  0.1548  0.0023 -0.9912
   44SOL    MW4  181   0.756   4.597   0.417 -0.5745  0.0608 -0.1461
   45SOL     OW  182   0.018   3.293   0.526  0.0341  0.2411  0.2758
   45SOL    HW2  183  -0.061   3.344   0.505  0.2694  0.1864 -0.7874
   45SOL    HW3  184   0.090   3.356   0.519  0.0921  0.2761  1.1817
   45SOL    MW4  185   0.017   3.308   0.522  0.0728  0.2385  0.2551
   46SOL     OW  186   0.348   4.010   0.324  0.2339 -0.5060 -0.0670
   46SOL    HW2  187   0.379   4.100   0.325  0.4903 -0.6104  1.2857
   46SOL    HW3  188   0.273   4.009   0.382  0.0015 -1.0858 -0.3727
   46SOL    MW4  189   0.342   4.021   0.332  0.2371 -0.5963  0.0712
   47SOL     OW  190   1.165   3.400   0.306  0.1440 -0.6017 -0.0184
   47SOL    HW2  191   1.164   3.415   0.212  0.8049 -0.3172  0.0225
   47SOL    HW3  192   1.131   3.311   0.316 -0.2923 -0.4891 -0.4959
   47SOL    MW4  193   1.160   3.390   0.295  0.1736 -0.5493 -0.0760
   48SOL     OW  194   0.545   3.937   0.501 -0.3512 -0.0766  0.2168
   48SOL    HW2  195   0.504   3.951   0.587 -0.4895  1.1848 -0.0498
   48SOL    HW3  196   0.476   3.955   0.438 -0.2103 -0.8733 -0.1771
   48SOL    MW4  197   0.531   3.941   0.504 -0.3509 -0.0153  0.1297
   49SOL     OW  198   0.978   2.932   0.170 -0.1251  0.6674  0.5899
   49SOL    HW2  199   1.007   2.883   0.092  0.2167 -1.4734  2.0194
   49SOL    HW3  200   0.906   2.881   0.205  0.2954  1.1318  2.1758
   49SOL    MW4  201   0.973   2.919   0.164 -0.0246  0.4462  0.9878
   50SOL     OW  202   0.707   4.334   0.449  0.0209  0.2071  0.1867
   50SOL    HW2  203   0.672   4.353   0.536  1.6209 -0.7338  1.0710
   50SOL    HW3  204   0.750   4.249   0.458  0.3265  0.1652 -1.4870
   50SOL    MW4  205   0.708   4.326   0.461  0.2723  0.0774  0.0826
   51SOL     OW  206   0.811   0.266   0.329 -0.0279 -0.2638  0.0333
   51SOL    HW2  207   0.746   0.209   0.288  0.2878 -1.9800  1.8188
   51SOL    HW3  208   0.760   0.330   0.377 -0.4139 -0.7976  0.3463
   51SOL    MW4  209   0.796   0.267   0.330 -0.0372 -0.5606  0.3102
   52SOL     OW  210   0.704   0.484   0.471  0.1406 -0.3029 -0.0764
   52SOL    HW2  211   0.748   0.566   0.494 -0.0328 -0.2905  0.2156
   52SOL    HW3  212   0.615   0.511   0.449  0.0823 -0.4153  0.0259
   52SOL    MW4  213   0.698   0.499   0.471  0.1100 -0.3161 -0.0243
   53SOL     OW  214   0.250   1.097   0.422 -0.9489  0.4485  0.5482
   53SOL    HW2  215   0.284   1.011   0.448 -0.6420  0.6320  0.7547
   53SOL    HW3  216   0.155   1.088   0.430 -0.9941 -0.2837 -0.6863
   53SOL    MW4  217   0.242   1.084   0.427 -0.9144  0.3761  0.4126
   54SOL     OW  218   1.769   0.690   0.443 -0.1903  0.2207  0.1282
   54SOL    HW2  219   1.686   0.649   0.467  0.4345  0.0437  2.0257
   54SOL    HW3  220   1.759   0.781   0.470 -0.3069  0.5631 -1.0186
   54SOL    MW4  221   1.756   0.697   0.450 -0.1232  0.2426  0.2272
   55SOL     OW  222   2.235   0.225   0.419  0.6582  0.1044  0.4220
   55SOL    HW2  223   2.147   0.259   0.400  0.8262  0.9318  1.0951
   55SOL    HW3  224   2.235   0.137   0.382 -0.8648 -0.3617  1.4654
   55SOL    MW4  225   2.223   0.218   0.411  0.4794  0.1520  0.6485
   56SOL     OW  226   1.476   0.960   0.498  0.0027  0.1084  0.6016
   56SOL    HW2  227   1.443   0.973   0.587  0.4090  0.8212  0.6590
   56SOL    HW3  228   1.463   1.045   0.455  0.1769 -0.1142  0.1057
   56SOL    MW4  229   1.470   0.973   0.504  0.0793  0.1731  0.5438
   57SOL     OW  230   0.296   1.318   0.575 -0.2160  0.0371 -0.4913
   57SOL    HW2  231   0.283   1.243   0.517 -1.2540  0.2449 -0.5509
   57SOL    HW3  232   0.378   1.358   0.546  1.8548 -2.7002  1.3434
   57SOL    MW4  233   0.305   1.314   0.564 -0.0797 -0.2967 -0.2571
   58SOL     OW  234   0.730   1.289   0.492 -0.1853 -0.3555 -0.1935
   58SOL    HW2  235   0.730   1.204   0.448 -0.8027  0.2490 -1.3884
   58SOL    HW3  236   0.815   1.327   0.470  0.5410 -1.1298  1.2663
   58SOL    MW4  237   0.741   1.283   0.483 -0.1709 -0.3779 -0.1585
   59SOL     OW  238   1.679   1.327   0.436 -0.3142  0.3262  0.0992
   59SOL    HW2  239   1.697   1.419   0.418 -1.6665  0.2861 -1.6575
   59SOL    HW3  240   1.765   1.285   0.434  0.0884  1.1813 -1.4496
   59SOL    MW4  241   1.692   1.334   0.433 -0.4395  0.4337 -0.3369
   60SOL     OW  242   0.991   1.399   0.469  0.1516 -0.1437 -0.6947
   60SOL    HW2  243   1.080   1.391   0.433  0.2325  1.3268 -0.8653
   60SOL    HW3  244   0.969   1.492   0.457 -0.4697  0.0189  1.5490
   60SOL    MW4  245   1.000   1.410   0.463  0.0803  0.0718 -0.4211
   61SOL     OW  246   0.935   1.711   0.416 -0.1810 -0.5819 -0.3012
   61SOL    HW2  247   1.005   1.775   0.419 -0.4976 -0.2908  1.2086
   61SOL    HW3  248   0.911   1.696   0.508 -1.0046 -1.8668 -0.7010
   61SOL    MW4  249   0.941   1.717   0.429 -0.3314 -0.7130 -0.1547
   62SOL     OW  250   0.392   2.170   0.477  0.3582 -0.0227 -0.2910
   62SOL    HW2  251   0.341   2.117   0.416  0.8789 -0.5746 -0.2497
   62SOL    HW3  252   0.482   2.141   0.465  0.9022  2.0442 -1.5049
   62SOL    MW4  253   0.397   2.159   0.467  0.4987  0.1772 -0.4457
   63SOL     OW  254   0.497   1.417   0.381 -0.1962  0.1263  0.0262
   63SOL    HW2  255   0.467   1.337   0.337  0.2609 -0.2424  0.3740
   63SOL    HW3  256   0.590   1.402   0.397 -0.4599  0.0311  1.5810
   63SOL    MW4  257   0.505   1.404   0.378 -0.1707  0.0651  0.2772
   64SOL     OW  258   0.957   2.466   0.487 -0.0524 -0.7994  0.2303
   64SOL    HW2  259   0.982   2.374   0.475 -1.3398 -1.6033  3.0949
   64SOL    HW3  260   0.931   2.471   0.579 -0.5632  2.3184 -0.0440
   64SOL    MW4  261   0.957   2.454   0.498 -0.2896 -0.4941  0.5720
   65SOL     OW  262   0.733   1.854   0.305  0.1493  0.2694  0.0749
   65SOL    HW2  263   0.795   1.911   0.259 -0.4902  0.3523 -0.6919
   65SOL    HW3  264   0.788   1.788   0.348  0.8670  1.2228  0.6312
   65SOL    MW4  265   0.749   1.853   0.304  0.1596  0.4061  0.0471
   66SOL     OW  266   1.213   2.576   0.466  0.0929 -0.2992  0.0299
   66SOL    HW2  267   1.118   2.561   0.473  0.1320 -0.1818  0.8475
   66SOL    HW3  268   1.223   2.671   0.473  0.2444 -0.2822 -0.4044
   66SOL    MW4  269   1.201   2.587   0.468  0.1180 -0.2815  0.0805
   67SOL     OW  270   0.647   2.065   0.479  0.4397  0.0949  0.0762
   67SOL    HW2  271   0.654   1.984   0.429 -0.7592 -0.2217  0.3997
   67SOL    HW3  272   0.673   2.134   0.416 -1.1194 -0.2892 -1.0184
   67SOL    MW4  273   0.651   2.064   0.464  0.0758  0.0024 -0.0255
   68SOL     OW  274   1.134   2.867   0.486  0.2514 -0.0152  0.1597
   68SOL    HW2  275   1.044   2.898   0.485  0.0104 -0.6909  0.3891
   68SOL    HW3  276   1.186   2.944   0.510 -0.3730  0.1047  1.1527
   68SOL    MW4  277   1.129   2.881   0.489  0.1372 -0.0885  0.3210
   69SOL     OW  278   0.815   3.213   0.459 -0.0920 -0.2884  0.2070
   69SOL    HW2  279   0.843   3.263   0.536  0.8095  0.4885 -0.6106
   69SOL    HW3  280   0.722   3.234   0.450 -0.3094 -0.6966  1.3003
   69SOL    MW4  281   0.807   3.222   0.468 -0.0018 -0.2397  0.2434
   70SOL     OW  282   1.080   3.621   0.475  0.0816 -0.1767  0.2376
   70SOL    HW2  283   1.096   3.535   0.434  1.5483  0.0533  0.3068
   70SOL    HW3  284   0.990   3.643   0.449  0.3903 -0.8106 -1.4802
   70SOL    MW4  285   1.070   3.612   0.466  0.3158 -0.2300  0.0201
   71SOL     OW  286   1.064   4.088   0.351  0.1329 -0.2146  0.0432
   71SOL    HW2  287   0.971   4.078   0.369 -0.0372 -0.1885 -0.7921
   71SOL    HW3  288   1.087   4.172   0.392 -0.4353  0.2626 -0.5989
   71SOL    MW4  289   1.055   4.098   0.359  0.0355 -0.1482 -0.1517
   72SOL     OW  290   0.575   3.661   0.495 -0.1101  0.1621 -0.0162
   72SOL    HW2  291   0.539   3.749   0.491  0.4474  0.4359  0.8397
   72SOL    HW3  292   0.606   3.652   0.585  0.1697 -0.7749 -0.2016
   72SOL    MW4  293   0.574   3.671   0.507  0.0004  0.0746  0.0723
   73SOL     OW  294   1.567   4.109   0.350  0.2814  0.0202 -0.3400
   73SOL    HW2  295   1.558   4.060   0.269 -0.4077  0.4104 -0.5056
   73SOL    HW3  296   1.525   4.054   0.416  0.1769  0.0474 -0.3848
   73SOL    MW4  297   1.560   4.095   0.348  0.1767  0.0753 -0.3678
   74SOL     OW  298   1.344   0.720   0.397 -0.2164  0.5737  0.3383
   74SOL    HW2  299   1.374   0.806   0.426  1.3795  1.2473 -3.0913
   74SOL    HW3  300   1.396   0.658   0.448  1.4532  1.6888  0.0318
   74SOL    MW4  301   1.355   0.723   0.408  0.2144  0.8097 -0.1546
   75SOL     OW  302   1.109   4.590   0.419  0.0652  0.2367 -0.0610
   75SOL    HW2  303   1.126   4.504   0.459  0.6519  1.3250  2.0778
   75SOL    HW3  304   1.186   4.606   0.364  0.8228  0.2075  0.9737
   75SOL    MW4  305   1.121   4.581   0.417  0.2425  0.3764  0.3577
   76SOL     OW  306   1.607   0.297   0.450  0.0507 -0.4365  0.0710
   76SOL    HW2  307   1.680   0.259   0.497  0.5686  1.0325  0.4803
   76SOL    HW3  308   1.647   0.352   0.383 -0.6808 -1.1357 -0.9593
   76SOL    MW4  309   1.622   0.299   0.447  0.0225 -0.3349 -0.0109
   77SOL     OW  310   1.541   0.552   0.536  0.4675 -0.0388 -0.0396
   77SOL    HW2  311   1.559   0.460   0.516  1.3033 -0.2306  1.4975
   77SOL    HW3  312   1.523   0.553   0.630 -0.6967  1.2090 -0.2603
   77SOL    MW4  313   1.541   0.540   0.546  0.4242  0.1005  0.1341
   78SOL     OW  314   1.372   0.142   0.450  0.2565  0.4159 -0.1500
   78SOL    HW2  315   1.371   0.062   0.398 -0.4802 -0.2079  0.8171
   78SOL    HW3  316   1.458   0.180   0.435  0.9311 -1.0120  0.0845
   78SOL    MW4  317   1.383   0.137   0.441  0.2483  0.1452  0.0085
   79SOL     OW  318   2.018   0.597   0.505  0.2232  0.4890 -0.4273
   79SOL    HW2  319   2.018   0.503   0.485  0.1724  0.5394 -0.6752
   79SOL    HW3  320   1.928   0.625   0.488  0.0871  0.4631  0.2394
   79SOL    MW4  321   2.006   0.588   0.500  0.1986  0.4922 -0.3720
   80SOL     OW  322   2.192   1.070   0.455  0.1291  0.0317 -0.0565
   80SOL    HW2  323   2.185   0.975   0.464  0.0403  0.1334  1.0664
   80SOL    HW3  324   2.280   1.085   0.421  0.4591 -0.4012  0.6003
   80SOL    MW4  325   2.203   1.060   0.452  0.1609 -0.0120  0.1783
   81SOL     OW  326   1.747   0.950   0.534 -0.5312 -0.2939 -0.0111
   81SOL    HW2  327   1.742   0.917   0.624 -1.9150 -0.3232 -0.0852
   81SOL    HW3  328   1.656   0.954   0.505 -0.0889 -0.3489 -1.4436
   81SOL    MW4  329   1.734   0.946   0.542 -0.6554 -0.3050 -0.2099
   82SOL     OW  330   1.454   1.197   0.360 -0.4030 -0.2031 -0.1613
   82SOL    HW2  331   1.466   1.193   0.265  0.5746 -2.9874  0.0074
   82SOL    HW3  332   1.528   1.249   0.391 -0.2390 -0.0090 -0.8686
   82SOL    MW4  333   1.466   1.203   0.351 -0.2524 -0.5449 -0.2324
   83SOL     OW  334   1.247   1.391   0.381 -0.0952  0.0663 -0.3934
   83SOL    HW2  335   1.302   1.468   0.369 -0.4886  0.4450  0.1643
   83SOL    HW3  336   1.308   1.317   0.387  0.2735  0.3218 -1.0534
   83SOL    MW4  337   1.262   1.391   0.380 -0.0984  0.1499 -0.4069
   84SOL     OW  338   1.106   1.947   0.465 -0.0328  0.1155  0.1196
   84SOL    HW2  339   1.130   1.992   0.546  1.0686  0.0716 -0.1788
   84SOL    HW3  340   1.189   1.926   0.424 -0.5721 -0.8892 -0.4682
   84SOL    MW4  341   1.120   1.950   0.471  0.0413 -0.0229  0.0027
   85SOL     OW  342   1.039   2.215   0.406 -0.0545 -0.1665  0.1740
   85SOL    HW2  343   1.115   2.249   0.360  0.0967 -1.1198 -0.2904
   85SOL    HW3  344   1.053   2.120   0.409 -0.9261 -0.2871  0.6163
   85SOL    MW4  345   1.051   2.207   0.401 -0.1495 -0.3081  0.1711
   86SOL     OW  346   1.567   2.320   0.431 -0.1887  0.0230 -0.2397
   86SOL    HW2  347   1.555   2.411   0.457  1.8355  0.0821  0.5622
   86SOL    HW3  348   1.661   2.311   0.414 -0.1710 -2.1894  0.7921
   86SOL    MW4  349   1.577   2.331   0.432  0.0807 -0.2611  0.0022
   87SOL     OW  350   2.487   2.032   0.408 -0.0852  0.2964  0.1620
   87SOL    HW2  351   2.508   1.939   0.417 -0.4471  0.1573 -0.3814
   87SOL    HW3  352   2.571   2.077   0.421  0.3665 -0.1900 -0.9696
   87SOL    MW4  353   2.501   2.026   0.411 -0.0734  0.2139 -0.0590
   88SOL     OW  354   1.536   2.031   0.431  0.1719 -0.1917 -0.1068
   88SOL    HW2  355   1.531   2.126   0.421 -0.9519 -0.2600 -0.3216
   88SOL    HW3  356   1.457   1.998   0.387 -0.2111 -1.1146  1.2214
   88SOL    MW4  357   1.525   2.039   0.424 -0.0269 -0.3225  0.0401
   89SOL     OW  358   0.767   2.253   0.321 -0.2319  0.5368 -0.2784
   89SOL    HW2  359   0.762   2.347   0.339 -1.2767  0.0057  2.3642
   89SOL    HW3  360   0.859   2.231   0.332  0.2881  1.5206 -2.4576
   89SOL    MW4  361   0.778   2.263   0.325 -0.3011  0.5965 -0.2172
   90SOL     OW  362   0.853   2.953   0.555 -0.3682 -0.0191  0.1565
   90SOL    HW2  363   0.828   3.038   0.519  1.1994  0.2976 -0.1957
   90SOL    HW3  364   0.794   2.940   0.629  0.2642  1.9849  1.0306
   90SOL    MW4  365   0.842   2.962   0.560 -0.0780  0.2871  0.2254
   91SOL     OW  366   1.953   2.105   0.406 -0.3026 -0.1069 -0.3768
   91SOL    HW2  367   1.959   2.094   0.500 -0.1044  0.4144 -0.3272
   91SOL    HW3  368   2.044   2.108   0.376 -0.3500 -1.5048 -0.7394
   91SOL    MW4  369   1.966   2.104   0.414 -0.2827 -0.2225 -0.4181
   92SOL     OW  370   1.806   4.017   0.452 -0.1809 -0.8292 -0.0179
   92SOL    HW2  371   1.729   4.046   0.403  1.1312  1.8763 -0.5623
   92SOL    HW3  372   1.827   3.930   0.416 -0.6936  0.0610 -2.5593
   92SOL    MW4  373   1.799   4.009   0.441 -0.0754 -0.3548 -0.4250
   93SOL     OW  374   1.433   3.902   0.515 -0.3148 -0.3516  0.4094
   93SOL    HW2  375   1.473   3.816   0.532  0.5457 -0.2630 -1.0800
   93SOL    HW3  376   1.359   3.884   0.458 -0.6517 -0.1885  0.7904
   93SOL    MW4  377   1.429   3.888   0.510 -0.2457 -0.3184  0.2632
   94SOL     OW  378   1.680   2.753   0.352 -0.3042  0.3970  0.1391
   94SOL    HW2  379   1.637   2.685   0.404  0.1185  0.5063  0.6329
   94SOL    HW3  380   1.693   2.712   0.266  1.0172 -0.5730  0.7838
   94SOL    MW4  381   1.676   2.738   0.347 -0.0741  0.2835  0.2893
   95SOL     OW  382   1.565   3.663   0.181  0.0070 -0.5507 -0.3936
   95SOL    HW2  383   1.516   3.740   0.153 -0.4943  0.0780  2.0649
   95SOL    HW3  384   1.499   3.608   0.225  0.9437 -0.9759  0.5014
   95SOL    MW4  385   1.550   3.666   0.183  0.0645 -0.5238  0.0488
   96SOL     OW  386   1.053   3.154   0.328  0.0951 -0.0699  0.0949
   96SOL    HW2  387   1.037   3.079   0.270  1.2605 -2.4225  2.6439
   96SOL    HW3  388   0.965   3.185   0.352 -0.4288 -1.0559 -0.5107
   96SOL    MW4  389   1.039   3.148   0.324  0.1797 -0.5104  0.3513
   97SOL     OW  390   1.428   3.478   0.373 -0.2324  0.3523 -0.0408
   97SOL    HW2  391   1.340   3.442   0.380  0.2320 -0.5188  1.5074
   97SOL    HW3  392   1.485   3.401   0.379  0.5785  0.5962 -3.5963
   97SOL    MW4  393   1.424   3.463   0.375 -0.0641  0.2695 -0.3057
   98SOL     OW  394   0.805   4.046   0.466 -0.3147  0.2668 -0.5160
   98SOL    HW2  395   0.716   4.013   0.475  0.0316 -0.7272 -0.6877
   98SOL    HW3  396   0.844   4.035   0.553  0.5170 -1.9167 -1.1376
   98SOL    MW4  397   0.799   4.041   0.479 -0.1593 -0.1525 -0.6207
   99SOL     OW  398   2.359   4.497   0.139 -0.2012 -0.1198  0.4833
   99SOL    HW2  399   2.338   4.441   0.065  0.1154  0.0836  0.2365
   99SOL    HW3  400   2.425   4.449   0.189  0.4128  0.2368  0.0167
   99SOL    MW4  401   2.365   4.484   0.136 -0.0784 -0.0459  0.3892
  100SOL     OW  402   1.750   4.554   0.477 -0.4917  0.2063  0.1546
  100SOL    HW2  403   1.705   4.495   0.538 -0.6276  0.3730  0.2141
  100SOL    HW3  404   1.841   4.523   0.477 -0.6222 -0.1755 -0.0216
  100SOL    MW4  405   1.756   4.542   0.485 -0.5268  0.1779  0.1392
  101SOL     OW  406   1.814   0.152   0.534  0.2995 -0.2736 -0.0688
  101SOL    HW2  407   1.803   0.154   0.629  0.6789 -0.8119 -0.0127
  101SOL    HW3  408   1.782   0.065   0.508 -1.5712  0.5568 -0.6596
  101SOL    MW4  409   1.808   0.141   0.543  0.1027 -0.2350 -0.1393
  102SOL     OW  410   1.760   0.468   0.261  0.1050  0.0344 -0.5167
  102SOL    HW2  411   1.773   0.548   0.312  1.0957 -0.0922 -0.5524
  102SOL    HW3  412   1.741   0.499   0.172 -1.2925  0.2492 -0.1447
  102SOL    MW4  413   1.760   0.483   0.256  0.0513  0.0460 -0.4723
  103SOL     OW  414   2.478   0.656   0.512  0.0946  0.2736  0.3901
  103SOL    HW2  415   2.489   0.569   0.474 -2.7240 -1.4983  3.2945
  103SOL    HW3  416   2.564   0.697   0.504  1.5573 -2.8349 -0.8806
  103SOL    MW4  417   2.491   0.650   0.506 -0.0843 -0.3703  0.6056
  104SOL     OW  418   2.910   1.935   0.330  0.3433 -0.4381  0.1317
  104SOL    HW2  419   2.860   2.015   0.343  0.0412 -0.6138  0.0669
  104SOL    HW3  420   2.850   1.865   0.357  1.4687 -0.4889  2.5766
  104SOL    MW4  421   2.895   1.936   0.335  0.4519 -0.4680  0.4458
  105SOL     OW  422   2.534   1.361   0.476 -0.0663  0.2712 -0.3824
  105SOL    HW2  423   2.627   1.345   0.494  0.2531  1.4458 -0.8809
  105SOL    HW3  424   2.505   1.284   0.428  0.9739  0.4158 -1.2710
  105SOL    MW4  425   2.543   1.349   0.472  0.1131  0.4453 -0.5654
  106SOL     OW  426   1.904   1.182   0.448  0.0133  0.2514 -0.2335
  106SOL    HW2  427   1.985   1.156   0.406 -1.2386 -1.5273 -1.6307
  106SOL    HW3  428   1.862   1.099   0.472 -1.8123  1.1213 -0.3553
  106SOL    MW4  429   1.909   1.168   0.446 -0.3928  0.1315 -0.4339
  107SOL     OW  430   1.423   1.634   0.416  0.1227  0.2569  0.1894
  107SOL    HW2  431   1.518   1.645   0.419 -0.0210  1.5132  0.3811
  107SOL    HW3  432   1.397   1.631   0.508 -0.0942  0.5641  0.1368
  107SOL    MW4  433   1.432   1.635   0.429  0.0751  0.4632  0.2077
  108SOL     OW  434   2.314   1.527   0.444  0.3965 -0.3520 -0.5081
  108SOL    HW2  435   2.272   1.462   0.389  0.7242 -0.5178 -0.5640
  108SOL    HW3  436   2.401   1.492   0.461  0.5519  0.0384 -0.4850
  108SOL    MW4  437   2.320   1.514   0.439  0.4603 -0.3224 -0.5124
  109SOL     OW  438   1.761   1.884   0.335 -0.1343  0.5416  0.4496
  109SOL    HW2  439   1.829   1.951   0.341  0.2440  0.0905  1.4035
  109SOL    HW3  440   1.681   1.929   0.363  0.2997  0.3557  2.0504
  109SOL    MW4  441   1.759   1.899   0.340 -0.0272  0.4576  0.7867
  110SOL     OW  442   2.291   2.457   0.423 -0.2658  0.0109  0.3869
  110SOL    HW2  443   2.298   2.440   0.517 -1.0890  0.8042  0.6019
  110SOL    HW3  444   2.372   2.503   0.401 -0.1428 -0.0302  0.7427
  110SOL    MW4  445   2.302   2.461   0.433 -0.3582  0.1101  0.4622
  111SOL     OW  446   1.606   3.261   0.411 -0.0070 -0.2317 -0.6793
  111SOL    HW2  447   1.696   3.277   0.439  0.1154 -0.0915 -1.1400
  111SOL    HW3  448   1.597   3.166   0.412  0.4315 -0.2876 -1.4969
  111SOL    MW4  449   1.617   3.251   0.415  0.0670 -0.2206 -0.8479
  112SOL     OW  450   1.548   2.570   0.533  0.1684 -0.2075  0.0484
  112SOL    HW2  451   1.620   2.546   0.591  0.2453 -1.2540 -0.4677
  112SOL    HW3  452   1.470   2.536   0.576  0.2073 -0.8402 -0.3761
  112SOL    MW4  453   1.547   2.563   0.547  0.1837 -0.4291 -0.0757
  113SOL     OW  454   1.269   3.100   0.511 -0.0402 -0.2293 -0.2022
  113SOL    HW2  455   1.197   3.122   0.452 -0.2552  0.9180  0.4543
  113SOL    HW3  456   1.340   3.071   0.454 -0.6299 -0.2301 -0.9362
  113SOL    MW4  457   1.269   3.099   0.496 -0.1463 -0.0781 -0.2124
  114SOL     OW  458   1.333   1.876   0.299  0.2472 -0.6348  0.5144
  114SOL    HW2  459   1.349   1.865   0.206  3.6411  0.3751  0.9051
  114SOL    HW3  460   1.350   1.791   0.338 -1.5723 -1.1638  0.2084
  114SOL    MW4  461   1.337   1.864   0.292  0.4549 -0.5714  0.5256
  115SOL     OW  462   3.656   2.098   0.391  0.5628  0.5075  0.4874
  115SOL    HW2  463   3.583   2.050   0.431  1.2163 -0.7223  0.2463
  115SOL    HW3  464   3.662   2.062   0.302  0.2349  1.9736 -0.1316
  115SOL    MW4  465   3.647   2.087   0.385  0.6058  0.5387  0.3739
  116SOL     OW  466   2.030   2.574   0.514  0.0405  0.2327  0.3881
  116SOL    HW2  467   2.120   2.556   0.487 -0.2842  0.3440 -0.7887
  116SOL    HW3  468   2.016   2.666   0.491 -0.2935  0.2765  0.7811
  116SOL    MW4  469   2.040   2.583   0.507 -0.0464  0.2532  0.2847
  117SOL     OW  470   1.277   2.322   0.317  0.2786  0.2005  0.0673
  117SOL    HW2  471   1.259   2.416   0.323  0.5181  0.2348  0.2591
  117SOL    HW3  472   1.366   2.313   0.351  0.2621 -0.0934  0.0290
  117SOL    MW4  473   1.287   2.333   0.323  0.3080  0.1663  0.0875
  118SOL     OW  474   1.538   2.986   0.439 -0.1634  0.1701 -0.0250
  118SOL    HW2  475   1.525   2.965   0.531  0.1120  1.1739  0.2492
  118SOL    HW3  476   1.585   2.911   0.403 -1.4517 -0.8215  0.3405
  118SOL    MW4  477   1.542   2.973   0.446 -0.2971  0.1717  0.0594
  119SOL     OW  478   2.031   3.119   0.347  0.2681 -0.1847 -0.3654
  119SOL    HW2  479   2.024   3.031   0.386 -1.4692 -0.0560 -0.3207
  119SOL    HW3  480   1.982   3.112   0.265  1.6351  0.2783 -1.2228
  119SOL    MW4  481   2.023   3.106   0.342  0.2193 -0.1066 -0.4727
  120SOL     OW  482   1.763   3.737   0.363  0.5562 -0.6119 -0.2806
  120SOL    HW2  483   1.717   3.725   0.280 -1.0712  0.5530  0.4380
  120SOL    HW3  484   1.822   3.661   0.369 -0.3595 -1.4623 -1.8048
  120SOL    MW4  485   1.765   3.725   0.353  0.2206 -0.5704 -0.3869
  121SOL     OW  486   1.226   3.858   0.344 -0.2712  0.0461 -0.4971
  121SOL    HW2  487   1.174   3.801   0.399  0.5812  1.4880  1.8652
  121SOL    HW3  488   1.175   3.938   0.336  0.8267  0.8505  0.4592
  121SOL    MW4  489   1.213   3.861   0.350 -0.0139  0.3424 -0.0592
  122SOL     OW  490   1.439   4.348   0.432 -0.3152  0.5202 -0.3478
  122SOL    HW2  491   1.496   4.368   0.507  0.3672  0.2974 -0.8046
  122SOL    HW3  492   1.479   4.272   0.391 -0.3924  0.9558 -1.2424
  122SOL    MW4  493   1.452   4.341   0.436 -0.2354  0.5483 -0.5261
  123SOL     OW  494   1.429   3.924   0.146  0.0253 -0.3320  0.0035
  123SOL    HW2  495   1.378   3.924   0.064 -0.5724  1.0168  0.3710
  123SOL    HW3  496   1.365   3.902   0.213  0.1183  0.4520  0.3506
  123SOL    MW4  497   1.413   3.921   0.144 -0.0413 -0.0506  0.0978
  124SOL     OW  498   2.256   4.613   0.386  0.3227  0.2976  0.6539
  124SOL    HW2  499   2.327   4.594   0.447  1.1960  0.0883 -0.4115
  124SOL    HW3  500   2.284   4.574   0.303 -1.0533  0.1696  0.2197
  124SOL    MW4  501   2.269   4.605   0.383  0.2564  0.2531  0.4560
  125SOL     OW  502   1.966   0.346   0.393 -0.3598 -0.2915 -0.2872
  125SOL    HW2  503   1.912   0.288   0.447 -0.4674  0.8677  0.8703
  125SOL    HW3  504   1.907   0.380   0.327 -0.6126 -0.4802 -0.1586
  125SOL    MW4  505   1.951   0.343   0.392 -0.4073 -0.1635 -0.1175
  126SOL     OW  506   2.728   1.047   0.517  0.6056  0.0782  0.1932
  126SOL    HW2  507   2.801   1.004   0.472  0.1546 -1.0190  0.5047
  126SOL    HW3  508   2.755   1.139   0.522  1.1581  0.0146 -1.3028
  126SOL    MW4  509   2.741   1.053   0.512  0.6190 -0.0750  0.0369
  127SOL     OW  510   2.384   0.839   0.230 -0.0280 -0.3773  0.2058
  127SOL    HW2  511   2.431   0.765   0.191 -1.0088 -0.8084 -0.1880
  127SOL    HW3  512   2.325   0.799   0.294 -0.0913  0.1197  0.4590
  127SOL    MW4  513   2.382   0.824   0.233 -0.1658 -0.3686  0.1872
  128SOL     OW  514   2.951   0.949   0.369  0.5005 -0.0851  0.0442
  128SOL    HW2  515   3.039   0.920   0.391  0.6662  0.0732 -0.4069
  128SOL    HW3  516   2.961   1.041   0.345  0.5261 -0.5653 -1.8850
  128SOL    MW4  517   2.964   0.958   0.369  0.5257 -0.1276 -0.2698
  129SOL     OW  518   3.257   0.633   0.391 -0.5461  0.3611 -0.7092
  129SOL    HW2  519   3.184   0.594   0.438  0.4015  0.1642  0.6258
  129SOL    HW3  520   3.252   0.726   0.412  0.9438  0.0264  1.3163
  129SOL    MW4  521   3.247   0.640   0.400 -0.2245  0.2910 -0.2658
  130SOL     OW  522   2.484   1.095   0.370  0.3629 -0.5077 -0.3291
  130SOL    HW2  523   2.546   1.068   0.438 -1.1561 -2.5129  0.2856
  130SOL    HW3  524   2.478   1.020   0.311 -0.8100  0.0042 -0.8809
  130SOL    MW4  525   2.491   1.082   0.371  0.0077 -0.7047 -0.3208
  131SOL     OW  526   3.223   1.615   0.484  0.1244  0.2693  0.5257
  131SOL    HW2  527   3.319   1.615   0.477 -0.0039  0.2310 -1.7809
  131SOL    HW3  528   3.198   1.704   0.459 -0.4557  0.1359  0.6263
  131SOL    MW4  529   3.232   1.627   0.480  0.0309  0.2466  0.2346
  132SOL     OW  530   2.568   0.603   0.189 -0.6484 -0.1883  0.0353
  132SOL    HW2  531   2.595   0.597   0.097 -1.9993  0.2682 -0.3925
  132SOL    HW3  532   2.519   0.523   0.205 -0.3635 -0.2955  0.3870
  132SOL    MW4  533   2.565   0.592   0.179 -0.7891 -0.1422  0.0253
  133SOL     OW  534   2.740   2.164   0.443 -0.1876 -0.3899 -0.4575
  133SOL    HW2  535   2.755   2.257   0.424 -0.6822 -0.3393 -0.5832
  133SOL    HW3  536   2.758   2.156   0.537 -0.6459 -0.0685 -0.3406
  133SOL    MW4  537   2.745   2.176   0.453 -0.3133 -0.3408 -0.4587
  134SOL     OW  538   1.704   1.620   0.442 -0.0716  0.1269 -0.1545
  134SOL    HW2  539   1.739   1.618   0.531  2.5077 -0.6253 -1.1299
  134SOL    HW3  540   1.742   1.698   0.403 -1.0758  0.3742 -0.6593
  134SOL    MW4  541   1.714   1.630   0.448  0.1363  0.0603 -0.3498
  135SOL     OW  542   2.544   1.752   0.480 -0.7402 -0.2559  0.0197
  135SOL    HW2  543   2.463   1.702   0.469 -0.4518 -0.7724  0.2230
  135SOL    HW3  544   2.579   1.723   0.565 -0.2392 -0.1928 -0.1618
  135SOL    MW4  545   2.538   1.741   0.490 -0.6360 -0.3157  0.0226
  136SOL     OW  546   2.251   2.178   0.350  0.0605 -0.2068 -0.3366
  136SOL    HW2  547   2.338   2.143   0.371 -0.6202 -0.4653  2.1871
  136SOL    HW3  548   2.256   2.270   0.374 -0.6588 -0.4551  0.8187
  136SOL    MW4  549   2.263   2.185   0.356 -0.1242 -0.2736  0.1488
  137SOL     OW  550   2.540   2.851   0.445  0.3564 -0.1497  0.6456
  137SOL    HW2  551   2.506   2.938   0.422  2.7136  0.9220  1.0749
  137SOL    HW3  552   2.492   2.827   0.524 -1.1000  0.2759 -0.0970
  137SOL    MW4  553   2.529   2.859   0.453  0.4752  0.0479  0.6042
  138SOL     OW  554   1.841   2.375   0.455 -0.2876  0.4543 -0.3473
  138SOL    HW2  555   1.895   2.298   0.437  1.2621  2.0315 -2.9278
  138SOL    HW3  556   1.904   2.447   0.457 -1.6712  1.6200  2.3920
  138SOL    MW4  557   1.856   2.374   0.453 -0.2657  0.8162 -0.3263
  139SOL     OW  558   1.962   2.848   0.415 -0.1060  0.1382  0.4209
  139SOL    HW2  559   1.970   2.855   0.510 -0.3151  2.0102  0.3156
  139SOL    HW3  560   1.875   2.812   0.401 -0.5549  1.0216  0.9073
  139SOL    MW4  561   1.952   2.844   0.426 -0.1928  0.5017  0.4712
  140SOL     OW  562   1.953   3.553   0.465 -0.3088  0.0509  0.3147
  140SOL    HW2  563   2.030   3.590   0.420 -0.6877 -0.5193 -0.8365
  140SOL    HW3  564   1.969   3.570   0.558  1.4134 -0.4074  0.1271
  140SOL    MW4  565   1.965   3.560   0.471 -0.1316 -0.0848  0.1381
  141SOL     OW  566   2.300   3.982   0.501 -0.2477  0.2725  0.6536
  141SOL    HW2  567   2.346   3.898   0.497  0.5362  0.7725 -1.5697
  141SOL    HW3  568   2.359   4.043   0.457 -2.1434  1.3466 -0.4321
  141SOL    MW4  569   2.314   3.979   0.494 -0.3944  0.4802  0.2170
  142SOL     OW  570   1.561   3.658   0.535  0.0404 -0.2518 -0.0905
  142SOL    HW2  571   1.511   3.599   0.478  0.1709  1.0560 -1.6028
  142SOL    HW3  572   1.644   3.672   0.488 -0.2286  1.5716 -0.0613
  142SOL    MW4  573   1.565   3.652   0.521  0.0221  0.1613 -0.2862
  143SOL     OW  574   1.891   3.281   0.511 -0.7685 -0.0558 -0.5221
  143SOL    HW2  575   1.944   3.226   0.454 -0.3229  0.0053 -0.1618
  143SOL    HW3  576   1.931   3.368   0.505  0.3617 -0.4356  1.2764
  143SOL    MW4  577   1.903   3.286   0.502 -0.5606 -0.0978 -0.2372
  144SOL     OW  578   2.020   4.453   0.508  0.0365  0.1476  0.4007
  144SOL    HW2  579   2.035   4.365   0.474  0.0560  0.1446  0.4175
  144SOL    HW3  580   2.087   4.507   0.465 -0.9167  0.4339 -0.7541
  144SOL    MW4  581   2.031   4.449   0.497 -0.0867  0.1850  0.2505
  145SOL     OW  582   2.043   4.177   0.429 -0.0845  0.3530 -0.8492
  145SOL    HW2  583   1.965   4.122   0.441  0.3646  0.0079  0.5133
  145SOL    HW3  584   2.116   4.116   0.428  0.4939  0.9463  1.4313
  145SOL    MW4  585   2.042   4.162   0.430  0.0510  0.3858 -0.3686
  146SOL     OW  586   2.593   4.335   0.257  0.5144 -0.8638  0.3980
  146SOL    HW2  587   2.654   4.285   0.203  1.2741 -0.4943  0.9030
  146SOL    HW3  588   2.555   4.270   0.316  1.1224 -0.9372  0.7124
  146SOL    MW4  589   2.596   4.320   0.258  0.6949 -0.8248  0.5061
  147SOL     OW  590   2.427   3.728   0.504 -0.1794  0.0167 -0.7471
  147SOL    HW2  591   2.438   3.684   0.589 -0.1576  0.8180 -0.3295
  147SOL    HW3  592   2.371   3.669   0.454 -0.8340 -0.1074  0.1047
  147SOL    MW4  593   2.421   3.715   0.509 -0.2629  0.1061 -0.5796
  148SOL     OW  594   2.484   4.146   0.422 -0.3347 -0.0790  0.5717
  148SOL    HW2  595   2.554   4.081   0.429 -1.8172 -1.6040  1.7390
  148SOL    HW3  596   2.481   4.187   0.508 -0.2582  0.6516  0.2305
  148SOL    MW4  597   2.493   4.143   0.434 -0.5202 -0.1838  0.6807
  149SOL     OW  598   2.468   0.397   0.389 -0.0294 -0.1610  0.1993
  149SOL    HW2  599   2.538   0.333   0.388 -0.5800 -0.8126 -3.5161
  149SOL    HW3  600   2.387   0.345   0.387 -0.4902  0.5638 -2.0725
  149SOL    MW4  601   2.466   0.382   0.388 -0.1629 -0.1514 -0.5906
  150SOL     OW  602   2.231   0.787   0.451  0.2483  0.0028  0.2669
  150SOL    HW2  603   2.315   0.745   0.469  0.8072  0.3722 -1.4359
  150SOL    HW3  604   2.166   0.719   0.468  0.8636 -0.2742  1.6288
  150SOL    MW4  605   2.234   0.773   0.456  0.4032  0.0150  0.2220
  151SOL     OW  606   2.967   0.221   0.433 -0.1502  0.0087 -0.8546
  151SOL    HW2  607   3.009   0.219   0.519 -0.4179 -1.2271 -0.7456
  151SOL    HW3  608   3.026   0.172   0.376 -0.5150 -0.1079 -1.1333
  151SOL    MW4  609   2.980   0.215   0.437 -0.2337 -0.1697 -0.8770
  152SOL     OW  610   2.790   1.685   0.366  0.0302  0.4985  0.2949
  152SOL    HW2  611   2.708   1.709   0.409 -0.7542 -1.8098  0.1242
  152SOL    HW3  612   2.767   1.674   0.274  0.6506  0.3582  0.1535
  152SOL    MW4  613   2.776   1.687   0.360  0.0086  0.1755  0.2537
  153SOL     OW  614   3.712   0.598   0.477 -0.0414  0.0696 -0.2241
  153SOL    HW2  615   3.696   0.691   0.463  1.2804  0.1438 -1.3571
  153SOL    HW3  616   3.748   0.593   0.566  0.6892  0.7429 -0.4769
  153SOL    MW4  617   3.715   0.609   0.487  0.2294  0.1682 -0.4069
  154SOL     OW  618   2.991   1.215   0.302  0.0361  0.5334  0.1296
  154SOL    HW2  619   3.074   1.218   0.254 -0.3925 -0.1466 -0.6860
  154SOL    HW3  620   2.977   1.305   0.331  0.4534  0.9080 -0.7928
  154SOL    MW4  621   3.000   1.227   0.299  0.0346  0.4931 -0.0997
  155SOL     OW  622   2.803   1.320   0.541 -0.1466  0.2452  0.1920
  155SOL    HW2  623   2.821   1.331   0.634  0.0824 -0.0549  0.1841
  155SOL    HW3  624   2.861   1.382   0.498 -1.2955  1.4363  0.3184
  155SOL    MW4  625   2.813   1.329   0.548 -0.2680  0.3627  0.2077
  156SOL     OW  626   3.691   1.448   0.429 -0.2190  0.3362  0.3334
  156SOL    HW2  627   3.611   1.417   0.472  0.0516  0.9222  1.2813
  156SOL    HW3  628   3.675   1.541   0.413 -0.5246  0.0082 -1.3414
  156SOL    MW4  629   3.678   1.456   0.433 -0.2236  0.3702  0.2375
  157SOL     OW  630   2.722   0.146   0.725 -0.5713  0.2972 -0.2483
  157SOL    HW2  631   2.711   0.234   0.761  0.2771  0.1894  0.3034
  157SOL    HW3  632   2.690   0.153   0.635 -1.4117  0.9229  0.0966
  157SOL    MW4  633   2.717   0.159   0.718 -0.5703  0.3655 -0.1300
  158SOL     OW  634   3.116   2.061   0.654 -0.1329 -0.3485  0.2178
  158SOL    HW2  635   3.026   2.087   0.640 -0.1235 -0.4204  0.0163
  158SOL    HW3  636   3.114   2.007   0.733 -0.1066  0.4826  0.7830
  158SOL    MW4  637   3.104   2.057   0.663 -0.1282 -0.2483  0.2658
  159SOL     OW  638   2.728   2.432   0.441  0.7844  0.3831 -0.4920
  159SOL    HW2  639   2.658   2.485   0.402  0.7218  3.3413  3.2763
  159SOL    HW3  640   2.806   2.458   0.393 -0.1280 -0.2916 -2.3867
  159SOL    MW4  641   2.729   2.443   0.429  0.6558  0.6844 -0.2448
  160SOL     OW  642   2.991   1.479   0.416 -0.5084  0.0286 -0.5557
  160SOL    HW2  643   3.070   1.518   0.453 -0.9993  0.7043 -0.2006
  160SOL    HW3  644   2.937   1.554   0.390 -1.3432 -0.4102 -0.1210
  160SOL    MW4  645   2.994   1.494   0.418 -0.6833  0.0599 -0.4515
  161SOL     OW  646   2.530   2.607   0.324  0.0238  0.0657  0.4474
  161SOL    HW2  647   2.519   2.687   0.376 -0.8997 -0.8980  1.7675
  161SOL    HW3  648   2.536   2.638   0.233 -0.7599  1.5942  0.9026
  161SOL    MW4  649   2.529   2.621   0.319 -0.2014  0.1402  0.6817
  162SOL     OW  650   2.692   3.313   0.411 -0.0975  0.2076 -0.0074
  162SOL    HW2  651   2.784   3.334   0.395  0.1369 -0.1123  0.8987
  162SOL    HW3  652   2.688   3.293   0.504 -1.3752  1.6933  0.2722
  162SOL    MW4  653   2.704   3.313   0.421 -0.2351  0.3614  0.1490
  163SOL     OW  654   2.943   3.646   0.474 -0.4810  0.2956  0.0215
  163SOL    HW2  655   2.859   3.669   0.435  0.1042 -2.1383 -2.9093
  163SOL    HW3  656   3.007   3.698   0.425  0.0222 -0.6461 -0.3295
  163SOL    MW4  657   2.941   3.656   0.462 -0.3374 -0.1497 -0.4115
  164SOL     OW  658   3.139   3.222   0.482  0.5453 -0.6202 -0.1100
  164SOL    HW2  659   3.122   3.130   0.459 -0.3874 -0.5075  0.1117
  164SOL    HW3  660   3.135   3.224   0.578  0.1207 -0.2614 -0.1341
  164SOL    MW4  661   3.136   3.210   0.492  0.3662 -0.5580 -0.0839
  165SOL     OW  662   2.569   3.489   0.228  0.1395  0.0492 -0.5264
  165SOL    HW2  663   2.586   3.442   0.147  2.2418  1.0970 -0.7532
  165SOL    HW3  664   2.598   3.429   0.297  1.3719  0.3920 -0.7334
  165SOL    MW4  665   2.575   3.475   0.227  0.5795  0.2327 -0.5836
  166SOL     OW  666   2.250   3.247   0.462 -0.5343 -0.2953  0.2152
  166SOL    HW2  667   2.186   3.200   0.409 -0.8253  0.7209 -0.3382
  166SOL    HW3  668   2.219   3.236   0.552 -1.9404  0.8511 -0.1118
  166SOL    MW4  669   2.237   3.240   0.467 -0.7582 -0.0100  0.0991
  167SOL     OW  670   3.165   3.562   0.206 -0.2593  0.0846  0.2490
  167SOL    HW2  671   3.243   3.523   0.244 -0.1562 -1.8841 -1.8971
  167SOL    HW3  672   3.102   3.490   0.200 -0.6499  0.6088 -2.2475
  167SOL    MW4  673   3.167   3.547   0.211 -0.2972 -0.1060 -0.3635
  168SOL     OW  674   2.699   3.964   0.446 -0.2086 -0.2392 -0.2597
  168SOL    HW2  675   2.766   4.013   0.399 -0.7237 -0.1735 -0.9268
  168SOL    HW3  676   2.698   3.878   0.403 -0.4668 -0.2821 -0.1653
  168SOL    MW4  677   2.708   3.959   0.434 -0.3106 -0.2362 -0.3353
  169SOL     OW  678   2.315   3.504   0.368  0.0940 -0.1232  0.0480
  169SOL    HW2  679   2.387   3.499   0.304 -1.2294 -0.7082 -1.4391
  169SOL    HW3  680   2.292   3.412   0.384 -0.9386  0.0841 -0.2250
  169SOL    MW4  681   2.322   3.491   0.362 -0.2168 -0.1730 -0.1842
  170SOL     OW  682   3.660   4.013   0.517 -0.3689 -0.2571  0.1649
  170SOL    HW2  683   3.634   3.947   0.453  1.4173 -0.7186 -0.1116
  170SOL    HW3  684   3.581   4.066   0.530 -0.9794 -0.6294 -1.8207
  170SOL    MW4  685   3.646   4.012   0.511 -0.2137 -0.3671 -0.1336
  171SOL     OW  686   3.061   4.642   0.317 -0.0153 -0.0495 -0.0416
  171SOL    HW2  687   3.017   4.651   0.232 -0.3530  0.5770  0.1998
  171SOL    HW3  688   3.010   4.576   0.363 -0.2048  0.0664 -0.0859
  171SOL    MW4  689   3.049   4.634   0.312 -0.0849  0.0484 -0.0156
  172SOL     OW  690   3.477   4.446   0.533 -0.0309  0.2838  0.3405
  172SOL    HW2  691   3.431   4.529   0.518 -1.3527 -0.1083  1.9568
  172SOL    HW3  692   3.562   4.457   0.492  0.1356  2.7727  1.3032
  172SOL    MW4  693   3.482   4.458   0.526 -0.1833  0.5604  0.6807
  173SOL     OW  694   2.643   4.572   0.400 -0.7658 -0.3172 -0.2396
  173SOL    HW2  695   2.581   4.554   0.471  0.2842 -0.4537  0.6542
  173SOL    HW3  696   2.633   4.499   0.339 -0.6576 -0.9338  0.4794
  173SOL    MW4  697   2.633   4.560   0.401 -0.6130 -0.4166 -0.0268
  174SOL     OW  698   2.764   4.171   0.141  0.0030  0.0451  0.1959
  174SOL    HW2  699   2.817   4.145   0.066  0.2196  1.1885 -0.0545
  174SOL    HW3  700   2.824   4.169   0.215  0.6076  2.1273 -0.2233
  174SOL    MW4  701   2.779   4.167   0.141  0.1114  0.4707  0.1075
  175SOL     OW  702   2.828   0.691   0.405  0.7901  0.0499 -0.2906
  175SOL    HW2  703   2.763   0.683   0.336 -0.0091  1.1795  0.3311
  175SOL    HW3  704   2.869   0.776   0.391  1.8127 -0.4464 -0.3894
  175SOL    MW4  705   2.825   0.701   0.394  0.8196  0.1335 -0.2216
  176SOL     OW  706   3.463   0.440   0.473  0.7321 -0.7250  0.2183
  176SOL    HW2  707   3.546   0.480   0.448  0.5407  0.4220  1.3813
  176SOL    HW3  708   3.396   0.496   0.433  0.4893 -1.0036  0.2282
  176SOL    MW4  709   3.465   0.452   0.464  0.6748 -0.6105  0.3730
  177SOL     OW  710   2.683   0.180   0.450 -0.0382 -0.2357  0.1405
  177SOL    HW2  711   2.778   0.188   0.444 -0.2358  0.8123 -2.1165
  177SOL    HW3  712   2.664   0.093   0.413  0.1400 -1.0342  1.8964
  177SOL    MW4  713   2.693   0.169   0.444 -0.0407 -0.2028  0.0744
  178SOL     OW  714   4.076   0.454   0.571  0.0841  0.0433  0.2011
  178SOL    HW2  715   4.036   0.373   0.540  1.5997 -1.2479  1.5251
  178SOL    HW3  716   4.006   0.499   0.619 -0.6008 -0.7768 -0.0313
  178SOL    MW4  717   4.062   0.450   0.574  0.1937 -0.2352  0.3451
  179SOL     OW  718   3.003   0.494   0.496 -0.1182 -0.3937 -0.5716
  179SOL    HW2  719   2.935   0.553   0.464  0.0145  0.3680  0.5418
  179SOL    HW3  720   2.994   0.416   0.441 -1.0548  0.1933 -1.2752
  179SOL    MW4  721   2.993   0.492   0.484 -0.2243 -0.2158 -0.5175
  180SOL     OW  722   3.509   1.666   0.522  0.6303  0.0132 -0.1855
  180SOL    HW2  723   3.565   1.642   0.596 -1.2200 -0.4157  1.1120
  180SOL    HW3  724   3.507   1.762   0.524  1.9333  0.0659 -0.7332
  180SOL    MW4  725   3.516   1.676   0.532  0.5581 -0.0364 -0.0866
  181SOL     OW  726   3.170   1.880   0.442  0.4658 -0.5743  0.0899
  181SOL    HW2  727   3.155   1.938   0.517  0.6180  0.4993 -0.6927
  181SOL    HW3  728   3.096   1.897   0.384  0.6720 -0.9486 -0.2787
  181SOL    MW4  729   3.158   1.890   0.444  0.5131 -0.4821 -0.0620
  182SOL     OW  730   3.627   0.890   0.452  0.4177 -0.4595 -0.1069
  182SOL    HW2  731   3.563   0.951   0.416  0.6159 -0.5376 -0.5975
  182SOL    HW3  732   3.611   0.890   0.546  1.0181  1.0557  0.0053
  182SOL    MW4  733   3.617   0.898   0.459  0.5230 -0.2699 -0.1569
  183SOL     OW  734   3.438   1.948   0.531  0.0536 -0.1081  0.0415
  183SOL    HW2  735   3.357   1.954   0.481  0.6285 -0.2964 -0.9265
  183SOL    HW3  736   3.421   1.996   0.612 -0.7331  0.5791 -0.5327
  183SOL    MW4  737   3.425   1.955   0.535  0.0257 -0.0423 -0.1620
  184SOL     OW  738   3.257   2.297   0.608  0.2062  0.0132  0.4680
  184SOL    HW2  739   3.223   2.209   0.624  0.8174 -0.1808  0.6995
  184SOL    HW3  740   3.301   2.321   0.689 -0.5279  0.7998  0.6449
  184SOL    MW4  741   3.258   2.289   0.621  0.1900  0.0914  0.5219
  185SOL     OW  742   3.490   2.742   0.597 -0.4193  0.7567 -0.1457
  185SOL    HW2  743   3.546   2.713   0.669 -0.2560  0.7132 -0.2895
  185SOL    HW3  744   3.472   2.662   0.548 -0.5956  0.7730 -0.1095
  185SOL    MW4  745   3.495   2.727   0.600 -0.4210  0.7531 -0.1599
  186SOL     OW  746   2.502   3.111   0.351  0.2197 -0.8685  0.1606
  186SOL    HW2  747   2.561   3.182   0.377  0.4819 -0.2638 -1.9832
  186SOL    HW3  748   2.414   3.145   0.368  0.3359  0.0716 -1.0131
  186SOL    MW4  749   2.498   3.125   0.356  0.2696 -0.6647 -0.2771
  187SOL     OW  750   3.208   2.694   0.305  0.2094 -0.4365  0.1158
  187SOL    HW2  751   3.284   2.650   0.344  1.1499 -0.2323 -1.4596
  187SOL    HW3  752   3.207   2.664   0.214 -2.0969 -1.0867  0.3226
  187SOL    MW4  753   3.218   2.684   0.298  0.0292 -0.4953 -0.0648
  188SOL     OW  754   2.811   2.855   0.747 -0.4771 -0.3881 -0.1320
  188SOL    HW2  755   2.805   2.838   0.653  0.0210 -0.5463 -0.1382
  188SOL    HW3  756   2.885   2.801   0.776  0.7872  1.3576 -0.0421
  188SOL    MW4  757   2.820   2.845   0.738 -0.2446 -0.1787 -0.1209
  189SOL     OW  758   3.284   0.002   0.509 -0.2014  0.1804 -0.1055
  189SOL    HW2  759   3.245   0.051   0.582 -1.0127  0.5791 -0.8000
  189SOL    HW3  760   3.210  -0.020   0.453  0.3140 -0.8299 -0.4055
  189SOL    MW4  761   3.269   0.006   0.511 -0.2405  0.0997 -0.2368
  190SOL     OW  762   3.160   4.054   0.458  0.3121  0.4757  0.1345
  190SOL    HW2  763   3.156   3.968   0.418 -1.0804 -0.2924  1.8534
  190SOL    HW3  764   3.165   4.037   0.552  0.3435  2.2643  0.4805
  190SOL    MW4  765   3.160   4.041   0.465  0.1325  0.6103  0.4069
  191SOL     OW  766   3.149   3.797   0.358  0.2842 -0.3288 -0.2927
  191SOL    HW2  767   3.155   3.733   0.287  0.3938 -1.6623  0.9129
  191SOL    HW3  768   3.206   3.762   0.427 -0.2253  0.6973  0.6565
  191SOL    MW4  769   3.158   3.784   0.358  0.2314 -0.3694 -0.0084
  192SOL     OW  770   3.325   3.423   0.378  0.1862 -0.7655  0.4689
  192SOL    HW2  771   3.256   3.364   0.409 -0.0951  0.1465  1.6224
  192SOL    HW3  772   3.406   3.383   0.409 -0.0059 -0.5451  1.2709
  192SOL    MW4  773   3.327   3.410   0.387  0.1237 -0.6161  0.7269
  193SOL     OW  774   2.954   3.386   0.361 -0.4096  0.3190  0.2122
  193SOL    HW2  775   2.951   3.476   0.393  2.3898  0.9246 -1.0511
  193SOL    HW3  776   3.003   3.339   0.428  0.5223  0.3550 -0.4373
  193SOL    MW4  777   2.960   3.392   0.374  0.0827  0.4037 -0.0402
  194SOL     OW  778   2.886   4.466   0.452 -0.3690  0.2696  0.2220
  194SOL    HW2  779   2.794   4.492   0.450 -0.7370 -1.0694 -0.6254
  194SOL    HW3  780   2.907   4.459   0.545 -1.3586 -0.2431  0.4125
  194SOL    MW4  781   2.877   4.469   0.464 -0.5481  0.0253  0.1353
  195SOL     OW  782   2.680   3.697   0.377 -0.2605 -0.1182  0.1995
  195SOL    HW2  783   2.602   3.700   0.433  1.1648 -1.2330  2.3022
  195SOL    HW3  784   2.655   3.639   0.305 -1.3135 -0.5948  0.9279
  195SOL    MW4  785   2.666   3.690   0.375 -0.2114 -0.3282  0.5730
  196SOL     OW  786   0.575   0.085   0.305  0.5616 -0.3611 -0.5121
  196SOL    HW2  787   0.504   0.132   0.349  0.2722 -0.5936 -0.7239
  196SOL    HW3  788   0.530   0.018   0.253  0.8451  0.4962 -1.8792
  196SOL    MW4  789   0.559   0.082   0.304  0.5608 -0.2787 -0.7204
  197SOL     OW  790   3.722   0.088   0.515  0.2622 -0.4550  0.3269
  197SOL    HW2  791   3.668   0.122   0.445  1.2523  1.0261  0.2657
  197SOL    HW3  792   3.759   0.007   0.479 -0.6469 -0.6447 -0.1949
  197SOL    MW4  793   3.720   0.082   0.501  0.2729 -0.2846  0.2500
  198SOL     OW  794   3.485   0.160   0.386  0.7131  0.5304  0.1778
  198SOL    HW2  795   3.405   0.117   0.418  1.1309 -0.1162  0.3733
  198SOL    HW3  796   3.464   0.253   0.387  0.3005  0.4384  1.1879
  198SOL    MW4  797   3.472   0.166   0.391  0.7138  0.4330  0.3369
  199SOL     OW  798   3.968   0.548   0.338  0.3216  0.3527  0.4477
  199SOL    HW2  799   3.882   0.563   0.378  0.3808  0.3432  0.5800
  199SOL    HW3  800   4.022   0.517   0.411 -0.0195 -1.2930  0.0208
  199SOL    MW4  801   3.964   0.546   0.353  0.2844  0.1343  0.4088
  200SOL     OW  802   4.345   0.370   0.680  0.4591 -0.1744 -0.0289
  200SOL    HW2  803   4.379   0.412   0.759  1.2136  2.6181 -1.7809
  200SOL    HW3  804   4.257   0.405   0.670  0.5700 -0.0813 -0.7332
  200SOL    MW4  805   4.338   0.380   0.689  0.5733  0.2063 -0.3530
  201SOL     OW  806   4.283   0.953   0.264 -0.6225 -0.0983 -0.7675
  201SOL    HW2  807   4.224   0.891   0.307 -1.2572  0.7998 -0.3197
  201SOL    HW3  808   4.232   0.988   0.191 -0.6719  0.7117 -0.3525
  201SOL    MW4  809   4.268   0.950   0.260 -0.7128  0.1271 -0.6537
  202SOL     OW  810   3.883   0.991   0.496 -0.2690 -0.1776  0.0104
  202SOL    HW2  811   3.893   1.080   0.461  0.0689  0.1068  0.8317
  202SOL    HW3  812   3.793   0.968   0.476 -0.0596 -0.0495 -1.1323
  202SOL    MW4  813   3.873   1.000   0.489 -0.1968 -0.1232 -0.0320
  203SOL     OW  814   0.452   1.896   0.315 -0.2300 -0.2510 -0.0969
  203SOL    HW2  815   0.419   1.812   0.348  0.5563 -0.2563  0.6697
  203SOL    HW3  816   0.544   1.880   0.295 -0.7825 -0.3838 -2.7709
  203SOL    MW4  817   0.460   1.883   0.316 -0.1992 -0.2692 -0.3485
  204SOL     OW  818   3.910   1.276   0.437  0.0231 -0.2605 -0.5691
  204SOL    HW2  819   3.986   1.332   0.426  0.1686 -0.2439  0.4759
  204SOL    HW3  820   3.835   1.333   0.422  0.2100 -0.1437 -1.0316
  204SOL    MW4  821   3.910   1.291   0.434  0.0670 -0.2429 -0.4922
  205SOL     OW  822   3.216   0.916   0.420  0.0656  0.3750 -0.1235
  205SOL    HW2  823   3.273   0.991   0.408 -1.4973  1.2716 -2.1211
  205SOL    HW3  824   3.187   0.923   0.511  1.9979  0.6715  0.5004
  205SOL    MW4  825   3.220   0.926   0.431  0.1144  0.5324 -0.3047
  206SOL     OW  826   3.435   1.110   0.403 -0.1625  0.2457  0.1533
  206SOL    HW2  827   3.460   1.183   0.460 -0.9019  0.4973  0.1609
  206SOL    HW3  828   3.448   1.145   0.314  0.6427 -0.0265  0.1533
  206SOL    MW4  829   3.440   1.124   0.399 -0.1538  0.2430  0.1543
  207SOL     OW  830   3.655   2.381   0.463 -0.3841  0.3497  0.2030
  207SOL    HW2  831   3.659   2.287   0.445  2.0449  0.3384  0.5049
  207SOL    HW3  832   3.665   2.387   0.558  1.8930  0.9624 -0.0312
  207SOL    MW4  833   3.657   2.370   0.473  0.2368  0.4291  0.2119
  208SOL     OW  834   3.876   2.534   0.385 -0.0659 -0.4458 -0.6122
  208SOL    HW2  835   3.797   2.484   0.407  0.4036 -0.9001  0.0885
  208SOL    HW3  836   3.940   2.467   0.363  0.3785 -0.1224 -0.3092
  208SOL    MW4  837   3.874   2.518   0.385  0.0547 -0.4631 -0.4798
  209SOL     OW  838   2.956   2.596   0.400  0.0256 -0.4625 -0.0094
  209SOL    HW2  839   3.035   2.628   0.357  0.3482  1.0241  1.6422
  209SOL    HW3  840   2.987   2.562   0.485 -1.1629  0.5331  0.8319
  209SOL    MW4  841   2.970   2.595   0.406 -0.0886 -0.1350  0.3195
  210SOL     OW  842   2.910   4.160   0.373  0.2785 -0.2505  0.7654
  210SOL    HW2  843   2.989   4.132   0.419 -0.1012 -0.2064  1.4578
  210SOL    HW3  844   2.898   4.252   0.400  0.4646  0.0046 -0.0032
  210SOL    MW4  845   2.919   4.169   0.383  0.2530 -0.2110  0.7554
  211SOL     OW  846   3.103   2.912   0.464 -0.2708 -0.2322 -0.0055
  211SOL    HW2  847   3.136   2.856   0.394 -0.4840  0.9283 -1.0568
  211SOL    HW3  848   3.008   2.905   0.458 -0.2775 -1.4433  1.2681
  211SOL    MW4  849   3.095   2.904   0.454 -0.2998 -0.2389  0.0238
  212SOL     OW  850   3.977   2.768   0.489  0.1145  0.3007  0.2572
  212SOL    HW2  851   4.072   2.774   0.475  0.4410  0.3135  2.2401
  212SOL    HW3  852   3.953   2.683   0.452  1.1815 -0.3894  1.1000
  212SOL    MW4  853   3.986   2.758   0.482  0.2984  0.2113  0.6300
  213SOL     OW  854   3.558   3.298   0.476 -0.2867 -0.0823 -0.5600
  213SOL    HW2  855   3.641   3.338   0.452  0.1251 -0.9899 -0.6675
  213SOL    HW3  856   3.572   3.204   0.464 -1.0012 -0.3180  0.4189
  213SOL    MW4  857   3.570   3.291   0.471 -0.3266 -0.2331 -0.4451
  214SOL     OW  858   3.998   3.741   0.451  0.2111 -0.0469  0.0116
  214SOL    HW2  859   3.967   3.704   0.533 -0.5808  1.2706  0.3282
  214SOL    HW3  860   3.944   3.700   0.384 -1.5063  1.4059  0.4652
  214SOL    MW4  861   3.987   3.731   0.453 -0.1200  0.3186  0.1132
  215SOL     OW  862   3.380   2.516   0.462 -0.1574 -0.1795 -0.2312
  215SOL    HW2  863   3.325   2.442   0.488 -0.2072 -0.0103  0.1392
  215SOL    HW3  864   3.464   2.475   0.440 -0.3145 -0.3945 -0.4410
  215SOL    MW4  865   3.384   2.501   0.463 -0.1847 -0.1856 -0.2100
  216SOL     OW  866   3.337   3.685   0.513  0.9748 -0.1489  0.0442
  216SOL    HW2  867   3.313   3.597   0.484  0.4919 -0.3696  1.1043
  216SOL    HW3  868   3.362   3.674   0.604 -1.4333  1.2162  0.9055
  216SOL    MW4  869   3.337   3.672   0.521  0.5934  0.0021  0.2977
  217SOL     OW  870   4.265   3.647   0.454  0.2154  0.0462  0.5535
  217SOL    HW2  871   4.180   3.687   0.440 -0.1363 -1.0229 -0.4878
  217SOL    HW3  872   4.253   3.556   0.428  1.7907 -0.0062 -0.0491
  217SOL    MW4  873   4.253   3.640   0.449  0.3769 -0.1017  0.3366
  218SOL     OW  874   3.427   4.176   0.499  0.0561  0.1794 -0.1245
  218SOL    HW2  875   3.423   4.271   0.498 -0.4884  0.1705  0.5607
  218SOL    HW3  876   3.344   4.147   0.462  1.2221 -0.0443 -2.6480
  218SOL    MW4  877   3.416   4.184   0.494  0.1381  0.1487 -0.3671
  219SOL     OW  878   4.070   4.191   0.281 -0.1999 -0.4343 -0.2225
  219SOL    HW2  879   4.037   4.128   0.344  1.6446 -1.2481 -0.0319
  219SOL    HW3  880   4.030   4.165   0.198 -1.0537 -0.5806  0.2277
  219SOL    MW4  881   4.061   4.180   0.278 -0.0692 -0.5610 -0.1380
  220SOL     OW  882   0.211   0.460   0.460 -0.0931 -0.2859  0.3155
  220SOL    HW2  883   0.213   0.459   0.556 -1.5106  1.1443  0.3655
  220SOL    HW3  884   0.119   0.448   0.438  0.1569 -0.0220 -0.8685
  220SOL    MW4  885   0.199   0.458   0.470 -0.2471 -0.0624  0.1659
  221SOL     OW  886   4.167   0.312   0.289 -0.2990  0.5476  0.2140
  221SOL    HW2  887   4.083   0.357   0.280 -0.2901  0.6356  0.5488
  221SOL    HW3  888   4.145   0.219   0.293 -0.3386  0.5384 -0.2213
  221SOL    MW4  889   4.153   0.306   0.289 -0.3031  0.5580  0.2007
  222SOL     OW  890   0.078   1.970   0.516 -0.4282 -0.2040 -0.1323
  222SOL    HW2  891   0.042   1.882   0.529  0.5892 -0.5308  0.4865
  222SOL    HW3  892   0.102   1.999   0.604  0.9736 -0.0516 -0.5631
  222SOL    MW4  893   0.076   1.962   0.530 -0.1090 -0.2270 -0.1075
  223SOL     OW  894   4.426   0.084   0.422 -0.1856  0.2001  0.0904
  223SOL    HW2  895   4.418   0.076   0.517  0.9923  1.5135  0.3122
  223SOL    HW3  896   4.424   0.178   0.405  0.1426 -0.0058 -1.1437
  223SOL    MW4  897   4.424   0.095   0.433  0.0131  0.3462 -0.0431
  224SOL     OW  898   4.460   1.051   0.458  0.3143  0.6235  0.0130
  224SOL    HW2  899   4.421   1.138   0.467  1.4299  1.1230  0.0521
  224SOL    HW3  900   4.409   1.009   0.389  0.1514  1.5275 -0.4229
  224SOL    MW4  901   4.448   1.057   0.450  0.4400  0.8087 -0.0394
  225SOL     OW  902   3.801   4.507   0.447 -0.3316  0.4381 -0.3036
  225SOL    HW2  903   3.885   4.494   0.402 -0.2419 -0.2412  0.0464
  225SOL    HW3  904   3.817   4.473   0.536 -1.1738 -0.3326 -0.4419
  225SOL    MW4  905   3.814   4.501   0.453 -0.4309  0.2468 -0.2757
  226SOL     OW  906   4.386   1.323   0.498 -0.3485 -0.2667 -0.4237
  226SOL    HW2  907   4.376   1.326   0.593  1.1060  1.8855 -0.2992
  226SOL    HW3  908   4.303   1.356   0.463 -0.6128 -0.3679  0.1136
  226SOL    MW4  909   4.374   1.328   0.506 -0.1915  0.0039 -0.3364
  227SOL     OW  910   0.118   1.483   0.456  0.2551 -0.0407 -0.0785
  227SOL    HW2  911   0.040   1.427   0.454  0.0497  0.1644  1.3152
  227SOL    HW3  912   0.187   1.427   0.490  0.1475  0.3976  0.9156
  227SOL    MW4  913   0.117   1.468   0.460  0.2138  0.0442  0.2366
  228SOL     OW  914   3.898   2.095   0.543 -0.1678 -0.3071 -0.5322
  228SOL    HW2  915   3.822   2.081   0.487 -0.7572  0.4119  0.0657
  228SOL    HW3  916   3.933   2.179   0.515  0.7409 -0.8808 -1.1644
  228SOL    MW4  917   3.893   2.104   0.532 -0.1257 -0.2879 -0.5367
  229SOL     OW  918   4.120   1.910   0.505  0.1724  0.0890 -0.3448
  229SOL    HW2  919   4.201   1.959   0.516 -0.2930  0.4344  1.9849
  229SOL    HW3  920   4.051   1.974   0.523 -0.5010 -0.9476  0.8787
  229SOL    MW4  921   4.121   1.925   0.509  0.0222 -0.0022  0.1240
  230SOL     OW  922   4.329   2.098   0.526 -0.0895  0.0469 -0.4150
  230SOL    HW2  923   4.337   2.172   0.466  0.1562 -0.2985 -0.8065
  230SOL    HW3  924   4.406   2.045   0.509 -0.5796 -0.6166 -0.5693
  230SOL    MW4  925   4.340   2.101   0.516 -0.1217 -0.0862 -0.4870
  231SOL     OW  926   4.142   1.412   0.374 -0.0510 -0.2663  0.4874
  231SOL    HW2  927   4.107   1.422   0.285  0.6528 -1.0192  0.1271
  231SOL    HW3  928   4.149   1.501   0.407 -1.0746 -0.0278  0.0801
  231SOL    MW4  929   4.138   1.425   0.367 -0.0932 -0.3341  0.3862
  232SOL     OW  930   4.366   2.321   0.368  0.4040 -0.3824 -0.2877
  232SOL    HW2  931   4.440   2.299   0.312  0.4336  0.4045 -0.5593
  232SOL    HW3  932   4.399   2.389   0.427 -0.5101  1.0201 -1.3700
  232SOL    MW4  933   4.380   2.327   0.369  0.2873 -0.0936 -0.4664
  233SOL     OW  934   3.564   3.000   0.492 -0.2359 -0.1871  0.2990
  233SOL    HW2  935   3.531   2.920   0.534  0.0997 -1.1654 -1.2525
  233SOL    HW3  936   3.658   3.000   0.512 -0.1634 -0.3943 -0.0412
  233SOL    MW4  937   3.572   2.989   0.500 -0.1821 -0.3435  0.0494
  234SOL     OW  938   4.045   2.331   0.441  0.1013 -0.4517 -0.1944
  234SOL    HW2  939   4.046   2.399   0.509  0.4011 -0.0112 -0.6329
  234SOL    HW3  940   4.135   2.329   0.408 -1.0713  2.8422 -3.9738
  234SOL    MW4  941   4.057   2.340   0.446 -0.0139  0.0410 -0.7509
  235SOL     OW  942   0.058   3.726   0.460 -0.4047 -0.3940  0.4845
  235SOL    HW2  943  -0.037   3.716   0.449 -0.6909  0.6511  1.8270
  235SOL    HW3  944   0.075   3.817   0.437  0.4559 -0.8918 -0.8582
  235SOL    MW4  945   0.048   3.736   0.455 -0.3289 -0.3218  0.4844
  236SOL     OW  946   4.282   3.386   0.393 -0.1368  0.4141  0.4768
  236SOL    HW2  947   4.331   3.368   0.313  1.3324 -0.2487  1.4996
  236SOL    HW3  948   4.200   3.337   0.383  1.0734 -1.6461  0.4251
  236SOL    MW4  949   4.278   3.378   0.381  0.2167  0.0548  0.6049
  237SOL     OW  950   0.471   2.926   0.461  0.5252  0.1726  0.3514
  237SOL    HW2  951   0.509   2.910   0.548  1.3986 -0.8181 -0.2022
  237SOL    HW3  952   0.469   3.021   0.453  0.9363  0.2634  1.2383
  237SOL    MW4  953   0.476   2.936   0.472  0.6946  0.0539  0.3954
  238SOL     OW  954   3.554   3.791   0.376  0.1792  0.1869 -0.0164
  238SOL    HW2  955   3.477   3.759   0.423  0.3561  1.3689  1.0832
  238SOL    HW3  956   3.526   3.795   0.284 -1.1161  0.7808  0.4037
  238SOL    MW4  957   3.540   3.787   0.370  0.0316  0.4212  0.1841
  239SOL     OW  958   4.048   3.236   0.457 -0.4215 -0.5028  0.1812
  239SOL    HW2  959   4.063   3.233   0.552  1.1061 -0.8032 -0.0598
  239SOL    HW3  960   3.989   3.162   0.441 -0.2471 -0.7908  0.8219
  239SOL    MW4  961   4.042   3.226   0.467 -0.1969 -0.5804  0.2340
  240SOL     OW  962   4.398   4.216   0.435  0.0825 -0.2963  0.0192
  240SOL    HW2  963   4.321   4.173   0.398 -0.2307  0.9898 -0.8843
  240SOL    HW3  964   4.368   4.249   0.519 -0.0631 -0.6829  0.1199
  240SOL    MW4  965   4.384   4.215   0.441  0.0220 -0.1776 -0.0867
  241SOL     OW  966   3.959   4.019   0.483 -0.2928  0.3047 -0.0597
  241SOL    HW2  967   3.979   3.932   0.448 -1.8231  1.1924 -3.2321
  241SOL    HW3  968   3.865   4.017   0.500 -0.4697  1.5804 -0.8738
  241SOL    MW4  969   3.949   4.007   0.481 -0.5180  0.5901 -0.5856
  242SOL     OW  970   3.800   3.623   0.300  0.0560  0.0826 -0.6413
  242SOL    HW2  971   3.780   3.534   0.327 -1.1022  0.6427  0.4062
  242SOL    HW3  972   3.729   3.676   0.337  0.7833  1.4499 -1.1558
  242SOL    MW4  973   3.788   3.618   0.308 -0.0008  0.3369 -0.5710
  243SOL     OW  974   4.097   4.444   0.416  0.1799 -0.1543 -0.1392
  243SOL    HW2  975   4.081   4.369   0.359 -1.1099  0.0539 -0.0616
  243SOL    HW3  976   4.131   4.405   0.497 -2.4853 -0.8684  0.7000
  243SOL    MW4  977   4.099   4.429   0.420 -0.3419 -0.2211 -0.0183
  244SOL     OW  978   0.166   4.652   0.799 -0.4134 -0.1531 -0.2547
  244SOL    HW2  979   0.169   4.556   0.801 -0.8340 -0.1743 -0.5116
  244SOL    HW3  980   0.075   4.672   0.775 -0.6301  0.3246  0.9316
  244SOL    MW4  981   0.154   4.642   0.796 -0.4975 -0.0928 -0.1321
  245SOL     OW  982   4.393   0.083   0.686  0.6796  0.0011  0.4480
  245SOL    HW2  983   4.331   0.024   0.729 -0.1480  0.8582  0.4466
  245SOL    HW3  984   4.359   0.171   0.705  1.3330  0.4426 -0.4161
  245SOL    MW4  985   4.380   0.087   0.694  0.6566  0.1725  0.3338
  246SOL     OW  986   4.473   0.453   0.914 -0.3295  0.1495  0.4327
  246SOL    HW2  987   4.488   0.392   0.986 -0.1212  0.4990  0.6811
  246SOL    HW3  988   4.559   0.468   0.876 -0.6763 -1.5909 -1.1555
  246SOL    MW4  989   4.486   0.447   0.918 -0.3477 -0.0340  0.2559
  247SOL     OW  990   0.191   0.492   0.731 -0.0231 -0.0518 -0.1679
  247SOL    HW2  991   0.271   0.460   0.773  0.0477 -0.3764 -0.5496
  247SOL    HW3  992   0.194   0.587   0.742 -0.8695 -0.2498  2.1364
  247SOL    MW4  993   0.202   0.500   0.738 -0.1254 -0.1207  0.0858
  248SOL     OW  994   0.189   0.758   0.841 -0.1068 -0.0167  0.4276
  248SOL    HW2  995   0.186   0.766   0.936 -0.2195 -1.6278  0.5713
  248SOL    HW3  996   0.110   0.802   0.811  0.3421  1.2219  1.0155
  248SOL    MW4  997   0.178   0.765   0.850 -0.0625 -0.0659  0.5242
  249SOL     OW  998   4.446   0.910   0.700  0.5405  0.3042  0.4243
  249SOL    HW2  999   4.358   0.878   0.681  1.4418 -2.6943  0.9700
  249SOL    HW3 1000   4.478   0.945   0.617 -1.1497  1.4224  0.2364
  249SOL    MW4 1001   4.439   0.910   0.687  0.4364  0.0561  0.4715
  250SOL     OW 1002   0.007   1.157   0.856  0.5170  0.4181  0.3928
  250SOL    HW2 1003  -0.012   1.148   0.949 -1.5218 -0.1774 -0.0437
  250SOL    HW3 1004  -0.015   1.071   0.819  0.1107  1.0215 -0.8043
  250SOL    MW4 1005   0.001   1.144   0.863  0.1944  0.4191  0.1773
  251SOL     OW 1006   0.249   1.274   0.839 -0.2032 -0.2035 -0.3343
  251SOL    HW2 1007   0.165   1.231   0.858  0.9203 -2.1970  0.2276
  251SOL    HW3 1008   0.258   1.269   0.744 -0.1323 -1.1206 -0.2810
  251SOL    MW4 1009   0.239   1.268   0.829 -0.0456 -0.5875 -0.2531
  252SOL     OW 1010   0.235   1.551   0.900  0.2670 -0.0114 -0.2586
  252SOL    HW2 1011   0.274   1.583   0.818 -0.2984  1.2710 -0.0375
  252SOL    HW3 1012   0.240   1.456   0.893  2.4626  0.1052 -0.7072
  252SOL    MW4 1013   0.241   1.543   0.888  0.4821  0.1732 -0.2886
  253SOL     OW 1014   0.020   1.726   0.834 -0.2040 -0.0886 -0.7283
  253SOL    HW2 1015  -0.057   1.691   0.880  0.3327  0.1940  0.3937
  253SOL    HW3 1016   0.093   1.673   0.865  0.0615 -0.3332 -1.7727
  253SOL    MW4 1017   0.019   1.714   0.844 -0.0982 -0.0836 -0.7181
  254SOL     OW 1018   0.023   1.983   0.854 -0.3305 -0.0152 -0.2156
  254SOL    HW2 1019   0.116   2.002   0.843 -0.5543  0.0875 -2.2501
  254SOL    HW3 1020   0.015   1.889   0.835 -0.6725  0.0283 -0.2979
  254SOL    MW4 1021   0.034   1.973   0.850 -0.4052  0.0041 -0.4949
  255SOL     OW 1022   0.250   2.104   0.714 -0.3307  0.2109  0.6904
  255SOL    HW2 1023   0.296   2.120   0.631 -2.3954 -0.9868 -0.7306
  255SOL    HW3 1024   0.244   2.191   0.755  2.5790  0.4882  0.6175
  255SOL    MW4 1025   0.255   2.118   0.708 -0.2192  0.0894  0.4933
  256SOL     OW 1026   0.228   2.359   0.851 -0.2062 -0.2930 -0.2195
  256SOL    HW2 1027   0.247   2.345   0.944 -1.7702 -1.4308 -0.0434
  256SOL    HW3 1028   0.305   2.405   0.817  0.1322  0.6462  1.7590
  256SOL    MW4 1029   0.241   2.363   0.859 -0.3679 -0.3192  0.0648
  257SOL     OW 1030   0.009   2.504   0.789  0.1767 -0.2789 -0.2810
  257SOL    HW2 1031  -0.060   2.447   0.822 -0.2001 -0.7282 -1.7847
  257SOL    HW3 1032   0.090   2.460   0.812  0.0719  1.2543  3.3214
  257SOL    MW4 1033   0.010   2.491   0.796  0.1132 -0.1359 -0.0041
  258SOL     OW 1034   0.007   2.766   0.871  0.1325 -0.1575  0.2859
  258SOL    HW2 1035   0.029   2.760   0.964  0.4065 -1.6018  0.1375
  258SOL    HW3 1036   0.005   2.676   0.841 -0.5430  0.2700 -0.9846
  258SOL    MW4 1037   0.010   2.754   0.879  0.0795 -0.2917  0.0987
  259SOL     OW 1038   0.217   2.892   0.739  0.4708 -0.0334 -0.1161
  259SOL    HW2 1039   0.131   2.871   0.774  1.2593 -3.2772  0.0054
  259SOL    HW3 1040   0.214   2.863   0.647  1.4372 -0.2172 -0.0982
  259SOL    MW4 1041   0.205   2.886   0.731  0.7024 -0.4856 -0.0977
  260SOL     OW 1042   0.209   3.159   0.856 -0.4585  0.0743  0.0314
  260SOL    HW2 1043   0.220   3.145   0.950  0.5335 -0.1567 -0.1084
  260SOL    HW3 1044   0.222   3.073   0.816  1.1144  0.5247 -0.4632
  260SOL    MW4 1045   0.212   3.146   0.863 -0.1201  0.1032 -0.0523
  261SOL     OW 1046   4.446   3.213   0.786  0.0225  0.0782 -0.1703
  261SOL    HW2 1047   4.528   3.189   0.830  0.2977  1.1360 -0.0909
  261SOL    HW3 1048   4.471   3.226   0.695 -0.5636 -2.1813 -0.6896
  261SOL    MW4 1049   4.460   3.211   0.780 -0.0185 -0.0804 -0.2283
  262SOL     OW 1050   4.463   3.468   0.895  0.2592 -0.0648 -0.2305
  262SOL    HW2 1051   4.392   3.506   0.842 -0.5289 -0.3940  0.5671
  262SOL    HW3 1052   4.465   3.376   0.870 -0.3533 -0.2984  0.5578
  262SOL    MW4 1053   4.454   3.461   0.885  0.0744 -0.1391 -0.0212
  263SOL     OW 1054   0.217   3.570   0.801 -0.1496  0.0500  0.4014
  263SOL    HW2 1055   0.141   3.544   0.852 -0.7023  1.0243  0.0760
  263SOL    HW3 1056   0.202   3.534   0.714 -0.3695  0.4690  0.2643
  263SOL    MW4 1057   0.205   3.562   0.796 -0.2515  0.2338  0.3404
  264SOL     OW 1058   0.231   3.855   0.825 -0.1631  0.2800  0.5785
  264SOL    HW2 1059   0.226   3.861   0.920 -1.5625  1.2314  0.4679
  264SOL    HW3 1060   0.222   3.762   0.806  0.7940  0.0227  1.4108
  264SOL    MW4 1061   0.229   3.844   0.835 -0.2215  0.3716  0.6737
  265SOL     OW 1062   0.000   3.970   0.734  0.2995 -0.1112 -0.4097
  265SOL    HW2 1063  -0.077   3.924   0.767  0.0889 -0.0252 -0.7833
  265SOL    HW3 1064   0.074   3.924   0.774  0.0190  0.6723  1.0617
  265SOL    MW4 1065  -0.000   3.958   0.744  0.2347  0.0035 -0.2649
  266SOL     OW 1066   4.431   4.226   0.814  0.1293 -0.5746  0.2137
  266SOL    HW2 1067   4.421   4.219   0.909 -1.2221 -1.1423  0.0410
  266SOL    HW3 1068   4.454   4.138   0.786  0.2847 -0.4600 -0.0181
  266SOL    MW4 1069   4.433   4.213   0.823 -0.0285 -0.6344  0.1603
  267SOL     OW 1070   0.170   4.384   0.738 -0.0632  0.2832  0.2074
  267SOL    HW2 1071   0.087   4.342   0.759 -0.2530  0.5900  0.0757
  267SOL    HW3 1072   0.173   4.385   0.642 -0.0402  0.5311  0.2105
  267SOL    MW4 1073   0.159   4.378   0.728 -0.0852  0.3564  0.1904
  268SOL     OW 1074   0.649   0.005   0.783 -0.0767  0.2165  0.2092
  268SOL    HW2 1075   0.649   0.001   0.878 -0.3034 -0.1875  0.1933
  268SOL    HW3 1076   0.564   0.041   0.760 -0.6881 -1.2274  0.1062
  268SOL    MW4 1077   0.638   0.009   0.792 -0.1873 -0.0273  0.1935
  269SOL     OW 1078   0.399   0.093   0.682  0.2204  0.2208  0.1480
  269SOL    HW2 1079   0.321   0.044   0.709  0.3398 -0.7087 -1.1155
  269SOL    HW3 1080   0.380   0.120   0.592  0.9319  0.9087  0.1939
  269SOL    MW4 1081   0.386   0.090   0.673  0.3300  0.1889 -0.0126
  270SOL     OW 1082   0.428   0.374   0.825 -0.5775 -0.1181  0.1993
  270SOL    HW2 1083   0.520   0.389   0.801 -0.4548  0.1340  0.8429
  270SOL    HW3 1084   0.407   0.290   0.783 -0.0504 -0.1854  0.0635
  270SOL    MW4 1085   0.437   0.365   0.816 -0.4918 -0.0938  0.2663
  271SOL     OW 1086   0.674   0.467   0.741 -0.1498 -0.1157  0.1010
  271SOL    HW2 1087   0.753   0.421   0.770 -0.1497 -0.6453 -0.7199
  271SOL    HW3 1088   0.681   0.468   0.646 -1.9039 -1.5514 -0.0771
  271SOL    MW4 1089   0.685   0.461   0.732 -0.3812 -0.3750 -0.0308
  272SOL     OW 1090   0.677   0.713   0.865 -0.5129  0.0704 -0.3996
  272SOL    HW2 1091   0.593   0.754   0.846 -0.7888 -0.3454 -0.0824
  272SOL    HW3 1092   0.671   0.626   0.826 -0.2122  0.0527 -0.4108
  272SOL    MW4 1093   0.665   0.707   0.858 -0.5096  0.0132 -0.3592
  273SOL     OW 1094   0.447   0.851   0.799  0.1394  0.4163  0.3429
  273SOL    HW2 1095   0.452   0.945   0.816 -0.3598  0.0665  2.4871
  273SOL    HW3 1096   0.355   0.829   0.812 -0.1865 -0.0036 -2.2818
  273SOL    MW4 1097   0.435   0.860   0.803  0.0306  0.3148  0.2795
  274SOL     OW 1098   0.471   1.117   0.874  0.0530  0.3391 -0.3514
  274SOL    HW2 1099   0.541   1.166   0.832 -0.9859  1.1019 -1.2490
  274SOL    HW3 1100   0.397   1.178   0.876 -0.5772 -0.4416  0.5765
  274SOL    MW4 1101   0.470   1.132   0.868 -0.1672  0.3368 -0.3474
  275SOL     OW 1102   0.693   1.265   0.766  0.4320 -0.4319 -0.1467
  275SOL    HW2 1103   0.686   1.357   0.792 -0.2224 -0.5818  0.2056
  275SOL    HW3 1104   0.699   1.267   0.671 -1.3397 -0.1300 -0.2556
  275SOL    MW4 1105   0.693   1.277   0.757  0.1119 -0.4118 -0.1146
  276SOL     OW 1106   0.649   1.537   0.810  0.4499 -0.2989 -0.2957
  276SOL    HW2 1107   0.653   1.553   0.904  0.9375  1.9938 -0.6855
  276SOL    HW3 1108   0.569   1.581   0.781  1.0744  0.2976 -1.1729
  276SOL    MW4 1109   0.639   1.545   0.818  0.5966  0.0823 -0.4629
  277SOL     OW 1110   0.431   1.679   0.693  0.2215 -0.2321 -0.3207
  277SOL    HW2 1111   0.456   1.766   0.722  1.6538 -0.5825 -0.4214
  277SOL    HW3 1112   0.405   1.690   0.602  0.9470  0.0102 -0.5027
  277SOL    MW4 1113   0.431   1.692   0.685  0.5062 -0.2463 -0.3580
  278SOL     OW 1114   0.446   1.923   0.800 -0.5761  0.0242 -0.0774
  278SOL    HW2 1115   0.451   1.937   0.894  0.7777  0.9789 -0.2701
  278SOL    HW3 1116   0.376   1.981   0.770  0.1884  1.0682  0.1176
  278SOL    MW4 1117   0.437   1.932   0.808 -0.2966  0.2879 -0.0771
  279SOL     OW 1118   0.694   2.065   0.748  0.3775 -0.0404 -0.0671
  279SOL    HW2 1119   0.614   2.024   0.782  0.8035 -0.3192  0.6099
  279SOL    HW3 1120   0.673   2.086   0.657 -0.6231  0.3068  0.2375
  279SOL    MW4 1121   0.680   2.062   0.740  0.3017 -0.0313  0.0625
  280SOL     OW 1122   0.683   2.330   0.836 -0.2097  0.2768 -0.0477
  280SOL    HW2 1123   0.680   2.320   0.931 -0.5403 -2.1865 -0.2809
  280SOL    HW3 1124   0.684   2.240   0.803 -2.1413  1.0935 -2.4300
  280SOL    MW4 1125   0.683   2.317   0.844 -0.5082  0.0595 -0.3928
  281SOL     OW 1126   0.467   2.471   0.749  0.2494  0.1447 -0.2021
  281SOL    HW2 1127   0.554   2.443   0.777 -0.6388 -1.8366  0.7530
  281SOL    HW3 1128   0.464   2.452   0.655 -0.1632 -2.7411  0.3286
  281SOL    MW4 1129   0.478   2.465   0.741  0.0778 -0.4975 -0.0060
  282SOL     OW 1130   0.416   2.737   0.851  0.0559 -0.1398  0.1890
  282SOL    HW2 1131   0.429   2.649   0.816 -0.3730  0.3111 -1.1655
  282SOL    HW3 1132   0.326   2.759   0.829  0.4365  0.9791 -0.3244
  282SOL    MW4 1133   0.406   2.728   0.843  0.0495  0.0673 -0.0574
  283SOL     OW 1134   0.631   2.864   0.728  0.6485  0.1352 -0.3023
  283SOL    HW2 1135   0.705   2.808   0.753 -0.4162 -0.7934  0.8333
  283SOL    HW3 1136   0.554   2.821   0.767 -0.3733  1.6037 -0.6660
  283SOL    MW4 1137   0.630   2.851   0.736  0.3732  0.2064 -0.2004
  284SOL     OW 1138   0.631   3.117   0.861  0.4510 -0.4273 -0.4879
  284SOL    HW2 1139   0.562   3.147   0.801  0.1118 -0.5543 -0.1608
  284SOL    HW3 1140   0.657   3.032   0.825  0.6430 -0.2512 -0.7766
  284SOL    MW4 1141   0.625   3.110   0.848  0.4316 -0.4208 -0.4829
  285SOL     OW 1142   0.454   3.269   0.728  0.6931  0.1516 -0.2597
  285SOL    HW2 1143   0.469   3.356   0.766 -1.5628  1.6439 -2.5505
  285SOL    HW3 1144   0.374   3.238   0.769  1.5477 -0.9153  0.6239
  285SOL    MW4 1145   0.445   3.277   0.738  0.5082  0.2077 -0.4454
  286SOL     OW 1146   0.465   3.502   0.882  0.1545  0.0730 -0.1282
  286SOL    HW2 1147   0.454   3.493   0.977  2.4829  0.0992  0.1777
  286SOL    HW3 1148   0.381   3.535   0.851 -0.3411  0.9594  2.0595
  286SOL    MW4 1149   0.453   3.506   0.890  0.3963  0.1934  0.2008
  287SOL     OW 1150   0.673   3.636   0.756  0.6811 -0.0937 -0.2644
  287SOL    HW2 1151   0.611   3.580   0.802 -0.1346  1.2452  0.2944
  287SOL    HW3 1152   0.663   3.722   0.796  2.4677  0.2948 -0.5888
  287SOL    MW4 1153   0.664   3.640   0.767  0.8092  0.1342 -0.2335
  288SOL     OW 1154   0.693   3.894   0.872 -0.0074 -0.3038  0.2254
  288SOL    HW2 1155   0.771   3.932   0.831  0.9366 -0.5207  1.7555
  288SOL    HW3 1156   0.620   3.945   0.838  0.9471  0.8855 -0.0839
  288SOL    MW4 1157   0.694   3.906   0.862  0.2431 -0.1755  0.3864
  289SOL     OW 1158   0.454   3.999   0.748  0.0901 -0.4092  0.2954
  289SOL    HW2 1159   0.426   4.089   0.760  0.8974 -0.1134 -0.0141
  289SOL    HW3 1160   0.379   3.946   0.774 -0.5460  0.3646  0.0314
  289SOL    MW4 1161   0.441   4.004   0.753  0.1127 -0.2681  0.2197
  290SOL     OW 1162   0.409   4.266   0.817 -0.1271 -0.7184  0.2537
  290SOL    HW2 1163   0.436   4.247   0.906 -0.4486 -0.2023  0.4658
  290SOL    HW3 1164   0.330   4.320   0.827 -1.2437 -2.1908 -0.3456
  290SOL    MW4 1165   0.402   4.271   0.830 -0.3168 -0.8445  0.2026
  291SOL     OW 1166   0.615   4.408   0.690  0.0532 -0.3273  0.3592
  291SOL    HW2 1167   0.534   4.383   0.735  0.4267 -0.4352  0.9779
  291SOL    HW3 1168   0.629   4.500   0.714  0.2965 -0.4092  0.5407
  291SOL    MW4 1169   0.606   4.417   0.700  0.1346 -0.3523  0.4648
  292SOL     OW 1170   1.101   4.656   0.819  0.0302 -0.4230  0.1214
  292SOL    HW2 1171   1.183   4.701   0.796 -0.6703  0.9428  0.2209
  292SOL    HW3 1172   1.035   4.698   0.764 -0.7390 -0.9383  0.6518
  292SOL    MW4 1173   1.103   4.667   0.809 -0.1637 -0.3108  0.2045
  293SOL     OW 1174   0.894   0.104   0.679 -0.0252 -0.5670 -0.2408
  293SOL    HW2 1175   0.916   0.187   0.722 -0.6259 -0.7225  0.3626
  293SOL    HW3 1176   0.806   0.084   0.708 -0.3265 -0.8388 -1.2994
  293SOL    MW4 1177   0.885   0.112   0.688 -0.1442 -0.6234 -0.3009
  294SOL     OW 1178   0.918   0.355   0.810 -0.5136 -0.2502  0.7841
  294SOL    HW2 1179   0.907   0.386   0.900 -0.1242  0.5140  0.5806
  294SOL    HW3 1180   0.969   0.425   0.768 -2.7697  0.5829 -0.6652
  294SOL    MW4 1181   0.923   0.369   0.816 -0.7599 -0.0394  0.5661
  295SOL     OW 1182   1.116   0.529   0.757 -0.0535 -0.0967 -0.2320
  295SOL    HW2 1183   1.173   0.457   0.785 -0.4382 -0.4720 -0.3991
  295SOL    HW3 1184   1.138   0.544   0.665  1.5200  1.4328  0.3650
  295SOL    MW4 1185   1.126   0.521   0.749  0.1033  0.0556 -0.1753
  296SOL     OW 1186   1.096   0.771   0.894 -0.1363 -0.2773  0.0610
  296SOL    HW2 1187   1.109   0.766   0.989 -2.7940 -0.1557  0.4630
  296SOL    HW3 1188   1.101   0.680   0.865  0.8415 -0.3014  0.2765
  296SOL    MW4 1189   1.099   0.758   0.903 -0.3579 -0.2645  0.1425
  297SOL     OW 1190   0.889   0.876   0.747 -0.2666  0.4096  0.0547
  297SOL    HW2 1191   0.965   0.837   0.791 -0.3484 -0.3194 -0.4401
  297SOL    HW3 1192   0.814   0.831   0.785 -0.3219 -0.4749 -1.0621
  297SOL    MW4 1193   0.889   0.865   0.758 -0.2847  0.1967 -0.1579
  298SOL     OW 1194   0.922   1.134   0.806  0.5100  0.5452  0.1876
  298SOL    HW2 1195   0.915   1.039   0.795  2.1367  0.2747  1.2953
  298SOL    HW3 1196   0.840   1.168   0.771 -0.5421 -1.3402  0.7316
  298SOL    MW4 1197   0.910   1.126   0.800  0.5858  0.2607  0.4055
  299SOL     OW 1198   1.140   1.293   0.692 -0.1888  0.1021 -0.1322
  299SOL    HW2 1199   1.079   1.238   0.741 -0.1385 -1.4647 -1.7719
  299SOL    HW3 1200   1.088   1.327   0.619  0.5490 -0.1996 -0.8114
  299SOL    MW4 1201   1.125   1.290   0.689 -0.0848 -0.1444 -0.4382
  300SOL     OW 1202   1.110   1.533   0.818 -0.2515  0.0693  0.1979
  300SOL    HW2 1203   1.034   1.577   0.778 -0.3862 -0.4462 -0.1209
  300SOL    HW3 1204   1.111   1.446   0.777  0.5460  0.0958  0.1667
  300SOL    MW4 1205   1.100   1.527   0.807 -0.1640  0.0048  0.1518
  301SOL     OW 1206   0.878   1.678   0.695 -0.4880  0.2851  0.0270
  301SOL    HW2 1207   0.892   1.760   0.742 -1.2541  0.1685  0.4633
  301SOL    HW3 1208   0.799   1.641   0.733 -0.7144 -0.1660 -0.8613
  301SOL    MW4 1209   0.870   1.684   0.706 -0.6190  0.2102 -0.0327
  302SOL     OW 1210   0.929   1.924   0.817  0.0971  0.1917  0.3472
  302SOL    HW2 1211   0.930   1.925   0.913  0.1659  1.3820  0.3408
  302SOL    HW3 1212   0.849   1.972   0.793 -0.5236 -1.0779 -0.1905
  302SOL    MW4 1213   0.918   1.931   0.827  0.0243  0.1812  0.2754
  303SOL     OW 1214   1.129   2.063   0.707  0.2450 -0.4624 -0.0981
  303SOL    HW2 1215   1.121   2.154   0.736  1.3354 -0.6098  0.6896
  303SOL    HW3 1216   1.049   2.021   0.737  0.5274 -0.1776  1.0607
  303SOL    MW4 1217   1.117   2.070   0.715  0.4261 -0.4443  0.1587
  304SOL     OW 1218   1.129   2.333   0.828 -0.3363  0.3822 -0.1421
  304SOL    HW2 1219   1.150   2.321   0.921 -0.2889 -0.8209 -0.3094
  304SOL    HW3 1220   1.208   2.373   0.791  0.2452 -0.6216  0.0077
  304SOL    MW4 1221   1.143   2.337   0.835 -0.2533  0.0910 -0.1444
  305SOL     OW 1222   0.902   2.469   0.756 -0.1505 -0.1403 -0.5563
  305SOL    HW2 1223   0.980   2.416   0.769 -0.5978 -0.1415  2.2912
  305SOL    HW3 1224   0.829   2.413   0.783 -0.9923  0.5160 -1.4134
  305SOL    MW4 1225   0.902   2.455   0.761 -0.3206 -0.0538 -0.2937
  306SOL     OW 1226   0.878   2.731   0.829 -0.4592  0.3498 -0.5319
  306SOL    HW2 1227   0.885   2.732   0.925 -1.5113  0.3978 -0.4474
  306SOL    HW3 1228   0.880   2.638   0.806 -3.2623  0.1401 -0.1924
  306SOL    MW4 1229   0.879   2.719   0.839 -0.9678  0.3284 -0.4760
  307SOL     OW 1230   1.102   2.857   0.771 -0.1856  0.2803  0.0147
  307SOL    HW2 1231   1.016   2.818   0.791 -1.0363  2.1922  0.2212
  307SOL    HW3 1232   1.119   2.833   0.680 -0.4397 -1.0194  0.3086
  307SOL    MW4 1233   1.093   2.849   0.761 -0.3314  0.3611  0.0807
  308SOL     OW 1234   1.070   3.134   0.802 -0.2189 -0.1143 -0.3027
  308SOL    HW2 1235   0.993   3.178   0.766 -0.0059 -1.0147 -1.8933
  308SOL    HW3 1236   1.058   3.042   0.779  0.6669 -0.4731  0.6334
  308SOL    MW4 1237   1.059   3.127   0.794 -0.0739 -0.2804 -0.3891
  309SOL     OW 1238   0.838   3.272   0.745  0.4156  0.3087  0.8101
  309SOL    HW2 1239   0.854   3.352   0.796  0.7691  0.3535  0.6314
  309SOL    HW3 1240   0.767   3.228   0.791 -0.3872  1.1649  0.3994
  309SOL    MW4 1241   0.831   3.277   0.758  0.3563  0.4276  0.7324
  310SOL     OW 1242   0.892   3.516   0.849 -0.0899  0.4206 -0.3178
  310SOL    HW2 1243   0.970   3.560   0.814 -0.3263 -0.1222 -1.5564
  310SOL    HW3 1244   0.818   3.563   0.811 -0.3621  0.2549  0.0019
  310SOL    MW4 1245   0.893   3.528   0.840 -0.1570  0.3272 -0.4390
  311SOL     OW 1246   1.109   3.638   0.731 -0.3427  0.6457  0.1823
  311SOL    HW2 1247   1.190   3.592   0.753 -1.3900 -1.9492 -1.2038
  311SOL    HW3 1248   1.100   3.628   0.637 -2.7723  0.0302  0.4349
  311SOL    MW4 1249   1.118   3.631   0.722 -0.8014  0.2221  0.0328
  312SOL     OW 1250   1.137   3.901   0.839 -0.3751 -0.0165  0.3271
  312SOL    HW2 1251   1.149   3.893   0.934  0.3960 -0.4208  0.2056
  312SOL    HW3 1252   1.127   3.810   0.809  2.4880 -0.1409 -0.3504
  312SOL    MW4 1253   1.137   3.888   0.848  0.1044 -0.0863  0.2217
  313SOL     OW 1254   0.904   4.033   0.749  0.2454  0.1662 -0.0565
  313SOL    HW2 1255   0.880   4.116   0.791 -0.0120  0.4489 -0.7633
  313SOL    HW3 1256   0.986   4.008   0.792  0.1193  0.5823  0.4406
  313SOL    MW4 1257   0.912   4.041   0.760  0.1948  0.2584 -0.0842
  314SOL     OW 1258   0.839   4.274   0.849  0.0470 -0.4533 -0.1578
  314SOL    HW2 1259   0.920   4.312   0.814 -0.4815 -0.5878 -1.5535
  314SOL    HW3 1260   0.771   4.304   0.789 -1.0029 -0.0186  1.2240
  314SOL    MW4 1261   0.840   4.283   0.837 -0.1613 -0.4137 -0.1596
  315SOL     OW 1262   1.084   4.367   0.756  0.3793 -0.4672 -0.3247
  315SOL    HW2 1263   1.168   4.333   0.785 -0.5950 -1.3337  1.5975
  315SOL    HW3 1264   1.086   4.460   0.778  0.8942 -0.4430 -0.4735
  315SOL    MW4 1265   1.095   4.374   0.762  0.3187 -0.5784 -0.0907
  316SOL     OW 1266   1.556   4.633   0.836  0.0479  0.1144  0.4090
  316SOL    HW2 1267   1.536   4.631   0.930  0.0490 -1.2499  0.3860
  316SOL    HW3 1268   1.480   4.676   0.797  0.2584  1.1184  1.0769
  316SOL    MW4 1269   1.543   4.638   0.843  0.0758  0.0669  0.4941
  317SOL     OW 1270   1.349   0.097   0.722  0.2059  0.3154 -0.3548
  317SOL    HW2 1271   1.342   0.182   0.764  0.2702  0.4273 -0.5665
  317SOL    HW3 1272   1.355   0.117   0.628  3.0527  0.2286 -0.2449
  317SOL    MW4 1273   1.349   0.111   0.715  0.5900  0.3187 -0.3682
  318SOL     OW 1274   1.307   0.337   0.830 -0.0113  0.0359  0.1785
  318SOL    HW2 1275   1.312   0.325   0.925 -0.0162  1.0744  0.3192
  318SOL    HW3 1276   1.382   0.392   0.809  0.1615 -0.4482 -0.4615
  318SOL    MW4 1277   1.317   0.343   0.840  0.0109  0.1091  0.1127
  319SOL     OW 1278   1.530   0.501   0.805 -0.1862  0.1948  0.0798
  319SOL    HW2 1279   1.531   0.590   0.840 -0.7055 -0.4811  1.8993
  319SOL    HW3 1280   1.605   0.458   0.847  0.4752 -0.0445 -1.3124
  319SOL    MW4 1281   1.540   0.507   0.815 -0.1675  0.0741  0.1362
  320SOL     OW 1282   1.500   0.763   0.884 -0.1895  0.0989 -0.3617
  320SOL    HW2 1283   1.584   0.798   0.855 -0.2365  0.0705 -0.5317
  320SOL    HW3 1284   1.447   0.840   0.903 -0.1829  0.1174 -0.4193
  320SOL    MW4 1285   1.504   0.778   0.883 -0.1948  0.0976 -0.3917
  321SOL     OW 1286   1.286   0.978   0.927 -0.1228 -0.2828 -0.1059
  321SOL    HW2 1287   1.312   1.013   0.842  0.0429 -1.4946 -0.5650
  321SOL    HW3 1288   1.215   0.917   0.907 -0.6987  0.0982  0.7261
  321SOL    MW4 1289   1.280   0.974   0.913 -0.1769 -0.3924 -0.0567
  322SOL     OW 1290   1.359   1.115   0.713  0.5174  0.6400 -0.5635
  322SOL    HW2 1291   1.437   1.171   0.713  0.1444  1.1760 -0.0711
  322SOL    HW3 1292   1.287   1.175   0.692  0.1025  0.3501  0.0230
  322SOL    MW4 1293   1.360   1.131   0.710  0.4134  0.6725 -0.4212
  323SOL     OW 1294   1.588   1.272   0.685 -0.0212  0.2159  0.4179
  323SOL    HW2 1295   1.581   1.357   0.728  0.7749  0.0763  0.8370
  323SOL    HW3 1296   1.626   1.292   0.599  0.2346  0.2768  0.5451
  323SOL    MW4 1297   1.592   1.286   0.679  0.1176  0.2056  0.4900
  324SOL     OW 1298   1.558   1.520   0.809  0.1110  0.2265  0.6271
  324SOL    HW2 1299   1.550   1.519   0.904 -1.5396  1.7357  0.5297
  324SOL    HW3 1300   1.478   1.561   0.778  0.0854 -1.2981 -1.4967
  324SOL    MW4 1301   1.547   1.525   0.818 -0.1101  0.2245  0.3341
  325SOL     OW 1302   1.329   1.633   0.687  0.0719  0.0074 -0.0865
  325SOL    HW2 1303   1.320   1.724   0.716 -1.1375  0.5581 -2.0785
  325SOL    HW3 1304   1.252   1.588   0.723  0.8024 -0.3152  1.1147
  325SOL    MW4 1305   1.317   1.639   0.696  0.0087  0.0375 -0.1908
  326SOL     OW 1306   1.317   1.887   0.802  0.5640 -0.2457  0.3376
  326SOL    HW2 1307   1.333   1.909   0.893 -1.6756 -0.9023  0.9216
  326SOL    HW3 1308   1.250   1.950   0.774  0.5070 -0.6991 -0.5727
  326SOL    MW4 1309   1.310   1.898   0.810  0.2610 -0.3921  0.2945
  327SOL     OW 1310   1.522   2.054   0.710  0.1412 -0.2074 -0.3005
  327SOL    HW2 1311   1.450   1.996   0.734  0.1354 -0.0329  0.1107
  327SOL    HW3 1312   1.538   2.036   0.617 -0.6234 -0.0298 -0.4619
  327SOL    MW4 1313   1.515   2.044   0.701  0.0395 -0.1609 -0.2675
  328SOL     OW 1314   1.560   2.313   0.823  0.0560  0.3542  0.2501
  328SOL    HW2 1315   1.477   2.357   0.806 -1.1264 -1.2803  1.6313
  328SOL    HW3 1316   1.543   2.221   0.803  1.7447  0.1038 -0.1209
  328SOL    MW4 1317   1.547   2.307   0.818  0.1228  0.1056  0.3834
  329SOL     OW 1318   1.328   2.479   0.699  0.0471  0.3570  0.3078
  329SOL    HW2 1319   1.319   2.562   0.746 -0.0898  0.3795  0.2434
  329SOL    HW3 1320   1.272   2.489   0.622  0.8707  0.6127 -0.2642
  329SOL    MW4 1321   1.319   2.491   0.695  0.1377  0.3937  0.2238
  330SOL     OW 1322   1.340   2.706   0.837  0.3823  0.2023 -0.1805
  330SOL    HW2 1323   1.377   2.701   0.925  0.3104  0.8954 -0.1066
  330SOL    HW3 1324   1.277   2.778   0.841  1.5387  1.2841 -1.2304
  330SOL    MW4 1325   1.336   2.715   0.849  0.5254  0.4365 -0.3093
  331SOL     OW 1326   1.542   2.880   0.740 -0.3090  0.0782 -0.3623
  331SOL    HW2 1327   1.519   2.965   0.777  0.0837  0.5470 -1.1624
  331SOL    HW3 1328   1.462   2.827   0.749 -0.4111  0.3919  0.5409
  331SOL    MW4 1329   1.528   2.884   0.746 -0.2706  0.1815 -0.3487
  332SOL     OW 1330   1.496   3.127   0.823  0.2591 -0.4363  0.2472
  332SOL    HW2 1331   1.513   3.135   0.917  0.4560  0.2964  0.1527
  332SOL    HW3 1332   1.417   3.180   0.809  0.0686 -0.7728  0.0450
  332SOL    MW4 1333   1.488   3.135   0.834  0.2600 -0.3840  0.2080
  333SOL     OW 1334   1.289   3.281   0.712 -0.4488 -0.5262 -0.1502
  333SOL    HW2 1335   1.214   3.242   0.757 -0.1043 -1.2669 -0.2126
  333SOL    HW3 1336   1.289   3.240   0.625 -0.9492  0.6930 -0.7552
  333SOL    MW4 1337   1.279   3.271   0.706 -0.4694 -0.4631 -0.2383
  334SOL     OW 1338   1.352   3.535   0.838  0.1192 -0.4857 -0.5178
  334SOL    HW2 1339   1.432   3.582   0.814 -1.5269  0.8417 -3.7290
  334SOL    HW3 1340   1.365   3.447   0.805 -0.2226  0.0777 -2.2057
  334SOL    MW4 1341   1.364   3.530   0.831 -0.1430 -0.2362 -1.1642
  335SOL     OW 1342   1.608   3.653   0.808 -0.1434  0.1669  0.0658
  335SOL    HW2 1343   1.652   3.580   0.851  0.9818  1.3904  1.0090
  335SOL    HW3 1344   1.598   3.625   0.717  0.5897 -1.0081  0.3380
  335SOL    MW4 1345   1.612   3.640   0.802  0.1018  0.1733  0.2261
  336SOL     OW 1346   1.596   3.921   0.862  0.1594  0.6442 -0.0387
  336SOL    HW2 1347   1.524   3.967   0.817  0.0819  0.6720  0.1148
  336SOL    HW3 1348   1.590   3.831   0.829  0.3688  0.7638 -0.4107
  336SOL    MW4 1349   1.585   3.915   0.851  0.1768  0.6637 -0.0675
  337SOL     OW 1350   1.364   4.044   0.745  0.1943  0.1431  0.3842
  337SOL    HW2 1351   1.279   4.005   0.769  0.4276 -0.6772 -0.1087
  337SOL    HW3 1352   1.385   4.005   0.661  0.2033  1.7280 -0.3565
  337SOL    MW4 1353   1.355   4.033   0.737  0.2262  0.2440  0.2214
  338SOL     OW 1354   1.357   4.300   0.825  0.1308  0.0358  0.1903
  338SOL    HW2 1355   1.405   4.354   0.762 -0.1571 -0.1833 -0.2228
  338SOL    HW3 1356   1.364   4.211   0.790  0.4320 -0.1638  0.7608
  338SOL    MW4 1357   1.364   4.295   0.812  0.1325 -0.0195  0.2111
  339SOL     OW 1358   1.588   4.414   0.673  0.2702  0.3446  0.3277
  339SOL    HW2 1359   1.654   4.371   0.728  2.6824  0.9612 -1.9487
  339SOL    HW3 1360   1.575   4.500   0.714  1.6047  0.5737  0.3096
  339SOL    MW4 1361   1.595   4.420   0.685  0.7645  0.4562  0.0250
  340SOL     OW 1362   2.016   0.011   0.886 -0.4066 -0.1162 -0.3058
  340SOL    HW2 1363   2.081   0.062   0.838  0.1005 -0.5880 -0.1150
  340SOL    HW3 1364   2.022  -0.077   0.850 -0.4196 -0.3373  0.2290
  340SOL    MW4 1365   2.025   0.006   0.875 -0.3414 -0.2076 -0.2100
  341SOL     OW 1366   1.783   0.135   0.824 -0.4985  0.2875  0.3095
  341SOL    HW2 1367   1.859   0.085   0.856  0.4877  0.0882 -2.2378
  341SOL    HW3 1368   1.712   0.071   0.823 -0.2411 -0.0224  0.8686
  341SOL    MW4 1369   1.784   0.120   0.828 -0.3344  0.2203  0.0471
  342SOL     OW 1370   1.797   0.392   0.897  0.2156 -0.0154  0.4873
  342SOL    HW2 1371   1.800   0.300   0.870  0.1529  0.4722 -1.2683
  342SOL    HW3 1372   1.848   0.438   0.830 -1.2439  1.4456  0.3543
  342SOL    MW4 1373   1.804   0.386   0.885  0.0148  0.2417  0.2381
  343SOL     OW 1374   1.995   0.504   0.755  0.3913 -0.1840 -0.5212
  343SOL    HW2 1375   2.073   0.460   0.790  0.6498 -0.4932 -1.4662
  343SOL    HW3 1376   2.023   0.535   0.669 -0.1903  0.7064 -0.3826
  343SOL    MW4 1377   2.009   0.502   0.748  0.3487 -0.1073 -0.6276
  344SOL     OW 1378   1.980   0.775   0.848  0.5009 -0.1398 -0.3392
  344SOL    HW2 1379   2.062   0.818   0.823  1.3531 -1.3661  0.2680
  344SOL    HW3 1380   1.995   0.683   0.828  0.1834 -0.7326  2.0373
  344SOL    MW4 1381   1.993   0.769   0.842  0.5714 -0.3798  0.0544
  345SOL     OW 1382   1.732   0.897   0.797 -0.0577 -0.7408  0.0223
  345SOL    HW2 1383   1.748   0.990   0.815 -1.1410 -0.1416 -1.9320
  345SOL    HW3 1384   1.816   0.854   0.812  0.0832  0.3077  2.4088
  345SOL    MW4 1385   1.745   0.904   0.801 -0.1820 -0.5234  0.0793
  346SOL     OW 1386   1.794   1.156   0.832  0.0844 -0.0411  0.1514
  346SOL    HW2 1387   1.876   1.181   0.790 -0.4087 -0.1876 -0.9157
  346SOL    HW3 1388   1.727   1.201   0.781 -0.5479 -0.5431  0.5413
  346SOL    MW4 1389   1.796   1.165   0.819 -0.0641 -0.1267  0.0621
  347SOL     OW 1390   2.032   1.231   0.690 -0.6286 -0.0674 -0.0091
  347SOL    HW2 1391   2.102   1.180   0.730 -1.4256 -0.7800  0.5006
  347SOL    HW3 1392   2.023   1.195   0.602  1.3533  1.7262 -0.9690
  347SOL    MW4 1393   2.040   1.220   0.684 -0.4723  0.0752 -0.0685
  348SOL     OW 1394   1.993   1.512   0.779 -0.1063  0.0923 -0.1451
  348SOL    HW2 1395   2.079   1.544   0.752  1.5022 -2.4827  1.7931
  348SOL    HW3 1396   1.986   1.425   0.740 -0.3388 -1.1232  2.5283
  348SOL    MW4 1397   2.004   1.505   0.770  0.0752 -0.4078  0.4633
  349SOL     OW 1398   1.774   1.675   0.717  0.0948  0.3549  0.0422
  349SOL    HW2 1399   1.841   1.610   0.741 -0.4982 -0.4427 -0.4111
  349SOL    HW3 1400   1.694   1.641   0.757 -0.2159  0.8170 -0.1967
  349SOL    MW4 1401   1.772   1.662   0.726 -0.0244  0.3107 -0.0492
  350SOL     OW 1402   1.775   1.935   0.825  0.0895 -0.0835 -0.0684
  350SOL    HW2 1403   1.782   1.848   0.784 -1.2729  0.6782 -1.9768
  350SOL    HW3 1404   1.686   1.964   0.806  0.0997  1.1932  1.7068
  350SOL    MW4 1405   1.764   1.927   0.817 -0.0889  0.1854 -0.0860
  351SOL     OW 1406   1.984   2.051   0.685  0.2383  0.2239 -0.2717
  351SOL    HW2 1407   1.992   2.138   0.723  1.6379 -0.2531  0.5598
  351SOL    HW3 1408   1.910   2.011   0.731  0.6585  0.3691  0.5345
  351SOL    MW4 1409   1.975   2.057   0.696  0.4784  0.1801 -0.0556
  352SOL     OW 1410   1.989   2.306   0.784  0.3064 -0.1059  0.3875
  352SOL    HW2 1411   1.980   2.298   0.879 -1.4235 -0.8472  0.1843
  352SOL    HW3 1412   1.920   2.367   0.758 -0.8474 -1.7997 -0.6604
  352SOL    MW4 1413   1.978   2.313   0.793 -0.0741 -0.4272  0.2224
  353SOL     OW 1414   1.749   2.472   0.703 -0.0540 -0.4071 -0.3609
  353SOL    HW2 1415   1.679   2.414   0.734 -0.7335  0.0021 -1.1112
  353SOL    HW3 1416   1.784   2.429   0.625  0.0837 -0.2778 -0.3715
  353SOL    MW4 1417   1.744   2.459   0.697 -0.1255 -0.3361 -0.4612
  354SOL     OW 1418   1.779   2.730   0.793  0.7440 -0.1871 -0.1517
  354SOL    HW2 1419   1.769   2.643   0.754  0.7326  0.0262 -0.6327
  354SOL    HW3 1420   1.696   2.774   0.775  0.6407 -0.1781  0.3494
  354SOL    MW4 1421   1.767   2.724   0.785  0.7289 -0.1578 -0.1491
  355SOL     OW 1422   2.001   2.840   0.699 -0.2730  0.1518  0.2358
  355SOL    HW2 1423   2.058   2.778   0.745  0.5541 -0.6488 -1.7837
  355SOL    HW3 1424   1.912   2.813   0.722  0.0816 -1.7217 -0.4920
  355SOL    MW4 1425   1.997   2.828   0.708 -0.1171 -0.2010 -0.1267
  356SOL     OW 1426   2.013   3.091   0.822 -0.2087 -0.1168  0.5331
  356SOL    HW2 1427   1.935   3.142   0.802 -0.7520 -0.6686  1.2016
  356SOL    HW3 1428   1.994   3.003   0.789 -0.3032 -0.5197  1.6175
  356SOL    MW4 1429   2.000   3.086   0.815 -0.2928 -0.2428  0.7644
  357SOL     OW 1430   1.748   3.248   0.768  0.0959 -0.0450  0.1156
  357SOL    HW2 1431   1.653   3.235   0.763 -0.1590  1.8776 -0.5276
  357SOL    HW3 1432   1.776   3.255   0.677  0.8762 -0.7897  0.3038
  357SOL    MW4 1433   1.739   3.247   0.755  0.1652  0.1104  0.0555
  358SOL     OW 1434   1.822   3.488   0.899 -0.1148  0.0835  0.1993
  358SOL    HW2 1435   1.827   3.496   0.994 -0.2182  0.6073  0.1571
  358SOL    HW3 1436   1.786   3.400   0.884 -1.3445  0.5093  0.6563
  358SOL    MW4 1437   1.818   3.477   0.909 -0.2907  0.2088  0.2540
  359SOL     OW 1438   1.999   3.594   0.730  0.4369  0.4983  0.4086
  359SOL    HW2 1439   1.988   3.689   0.732  0.5985  0.5513 -0.6528
  359SOL    HW3 1440   1.923   3.560   0.778 -1.4267  1.0764 -1.9667
  359SOL    MW4 1441   1.987   3.602   0.736  0.2124  0.5816 -0.0448
  360SOL     OW 1442   1.988   3.877   0.785  0.1632 -0.3791 -0.0170
  360SOL    HW2 1443   1.986   3.880   0.880  0.6795  1.3779 -0.0444
  360SOL    HW3 1444   1.940   3.954   0.757  1.3454 -0.0262 -1.1621
  360SOL    MW4 1445   1.982   3.887   0.794  0.3873 -0.1007 -0.1717
  361SOL     OW 1446   1.778   4.067   0.721  0.3589 -0.3172 -0.1485
  361SOL    HW2 1447   1.719   4.018   0.777 -2.0394  2.5546 -0.0457
  361SOL    HW3 1448   1.764   4.031   0.633  0.0634 -1.1148  0.2274
  361SOL    MW4 1449   1.769   4.056   0.717  0.0035 -0.0435 -0.0854
  362SOL     OW 1450   1.778   4.316   0.848  0.1491  0.1750 -0.2790
  362SOL    HW2 1451   1.770   4.303   0.943 -0.8081 -0.2033 -0.4058
  362SOL    HW3 1452   1.794   4.228   0.814 -1.1048  0.0711 -0.6236
  362SOL    MW4 1453   1.779   4.302   0.856 -0.1426  0.1114 -0.3412
  363SOL     OW 1454   2.019   4.422   0.794 -0.2444  0.2678  0.0731
  363SOL    HW2 1455   1.935   4.380   0.813  0.0143 -0.3232 -0.1142
  363SOL    HW3 1456   2.023   4.426   0.699  0.1996 -0.2144  0.0732
  363SOL    MW4 1457   2.008   4.417   0.784 -0.1517  0.1262  0.0484
  364SOL     OW 1458   2.477   0.020   0.793 -0.4698  0.1125 -0.0217
  364SOL    HW2 1459   2.464   0.030   0.887  0.0855 -0.7077  0.1490
  364SOL    HW3 1460   2.549   0.081   0.772 -0.7066  0.4175  0.0551
  364SOL    MW4 1461   2.485   0.029   0.803 -0.4278  0.0445  0.0110
  365SOL     OW 1462   2.230   0.142   0.704 -0.3115 -0.6399  0.3985
  365SOL    HW2 1463   2.314   0.097   0.717  0.7389  1.3716  0.7277
  365SOL    HW3 1464   2.221   0.148   0.608 -0.6008 -1.7843  0.3467
  365SOL    MW4 1465   2.240   0.137   0.693 -0.2110 -0.5255  0.4351
  366SOL     OW 1466   2.231   0.375   0.846  0.3692 -0.2490  0.1009
  366SOL    HW2 1467   2.305   0.418   0.803 -0.5283  0.5577 -0.6808
  366SOL    HW3 1468   2.227   0.288   0.806 -2.0407  1.3555 -3.5097
  366SOL    MW4 1469   2.240   0.369   0.835 -0.0672  0.0691 -0.4786
  367SOL     OW 1470   2.460   0.496   0.735 -0.0623 -0.2201  0.1389
  367SOL    HW2 1471   2.539   0.445   0.750  0.4191  0.6555  0.6242
  367SOL    HW3 1472   2.472   0.535   0.649  0.7297  1.1302  0.8368
  367SOL    MW4 1473   2.472   0.494   0.726  0.1058  0.0736  0.2950
  368SOL     OW 1474   2.462   0.756   0.860 -0.2128  0.1390  0.4285
  368SOL    HW2 1475   2.528   0.802   0.809  0.9265 -0.1626  1.6102
  368SOL    HW3 1476   2.467   0.666   0.829 -0.6211  0.2731 -0.0338
  368SOL    MW4 1477   2.471   0.750   0.849 -0.1163  0.1169  0.5234
  369SOL     OW 1478   2.229   0.837   0.747 -0.2408  0.3110 -0.4680
  369SOL    HW2 1479   2.302   0.797   0.795  2.4972  1.5349 -3.4073
  369SOL    HW3 1480   2.246   0.814   0.656 -3.1714  1.2582 -1.2862
  369SOL    MW4 1481   2.241   0.829   0.741 -0.2662  0.5974 -0.9637
  370SOL     OW 1482   2.239   1.110   0.819 -0.3431  0.1320 -0.0283
  370SOL    HW2 1483   2.243   1.118   0.914 -1.6797  0.0948  0.0343
  370SOL    HW3 1484   2.252   1.017   0.802 -0.7769  0.0372  0.1561
  370SOL    MW4 1485   2.241   1.099   0.829 -0.5767  0.1146  0.0043
  371SOL     OW 1486   2.467   1.278   0.743 -0.2952 -1.0081  0.3593
  371SOL    HW2 1487   2.380   1.243   0.762 -1.4986  1.5344 -0.1744
  371SOL    HW3 1488   2.470   1.284   0.647  0.2074 -0.4763  0.4033
  371SOL    MW4 1489   2.456   1.274   0.732 -0.3877 -0.6025  0.2947
  372SOL     OW 1490   2.471   1.561   0.821  0.2826  0.1365 -0.0221
  372SOL    HW2 1491   2.556   1.594   0.793  0.5727 -0.0085  0.6729
  372SOL    HW3 1492   2.473   1.468   0.799 -1.0281  0.7826 -3.1669
  372SOL    MW4 1493   2.483   1.553   0.814  0.1480  0.2026 -0.3453
  373SOL     OW 1494   2.228   1.630   0.685 -0.3178 -0.1746 -0.4080
  373SOL    HW2 1495   2.315   1.609   0.719  0.0528  0.2798 -1.0675
  373SOL    HW3 1496   2.231   1.604   0.593 -1.3705 -1.5529 -0.0715
  373SOL    MW4 1497   2.240   1.624   0.677 -0.4078 -0.2965 -0.4506
  374SOL     OW 1498   2.229   1.882   0.790  0.0654  0.0499  0.4970
  374SOL    HW2 1499   2.211   1.795   0.753  0.1942 -0.2426  1.1063
  374SOL    HW3 1500   2.146   1.928   0.784 -0.6715 -0.9474  2.3658
  374SOL    MW4 1501   2.216   1.876   0.785 -0.0148 -0.1203  0.8240
  375SOL     OW 1502   2.436   2.041   0.727  0.5579  0.3007 -0.0578
  375SOL    HW2 1503   2.361   1.983   0.744  0.6302  0.2604  0.1264
  375SOL    HW3 1504   2.431   2.060   0.633  1.1195 -0.8063 -0.3221
  375SOL    MW4 1505   2.425   2.036   0.717  0.6415  0.1493 -0.0684
  376SOL     OW 1506   2.477   2.283   0.853 -0.1887  0.3178  0.1951
  376SOL    HW2 1507   2.538   2.323   0.790 -0.2219 -0.1071 -0.1078
  376SOL    HW3 1508   2.457   2.197   0.816 -0.5762  0.2529  0.5518
  376SOL    MW4 1509   2.482   2.277   0.839 -0.2442  0.2532  0.2022
  377SOL     OW 1510   2.265   2.429   0.724  0.2009  0.0428 -0.2573
  377SOL    HW2 1511   2.328   2.395   0.788 -0.1595  0.6816  0.4389
  377SOL    HW3 1512   2.188   2.373   0.734  0.7065 -0.8640 -1.2455
  377SOL    MW4 1513   2.263   2.417   0.734  0.2201  0.0075 -0.2958
  378SOL     OW 1514   2.197   2.693   0.816  0.0564  0.1602 -0.7352
  378SOL    HW2 1515   2.208   2.697   0.911 -0.2486  0.7431 -0.7247
  378SOL    HW3 1516   2.218   2.603   0.793 -0.0772 -0.0327 -0.0881
  378SOL    MW4 1517   2.201   2.682   0.825 -0.0014  0.2117 -0.6484
  379SOL     OW 1518   2.428   2.808   0.726  0.3575  0.6320  0.4198
  379SOL    HW2 1519   2.497   2.768   0.779 -0.8624 -0.6186  1.1014
  379SOL    HW3 1520   2.347   2.782   0.769 -0.6464  0.0327 -1.7612
  379SOL    MW4 1521   2.426   2.799   0.739  0.0641  0.3879  0.2220
  380SOL     OW 1522   2.449   3.084   0.795 -0.5721 -0.3002  0.0827
  380SOL    HW2 1523   2.463   3.091   0.890  0.6297  0.1331 -0.1093
  380SOL    HW3 1524   2.437   2.991   0.779 -1.5256 -0.3009  0.7570
  380SOL    MW4 1525   2.449   3.073   0.806 -0.5393 -0.2431  0.1464
  381SOL     OW 1526   2.237   3.229   0.730  0.3255  0.0110 -0.1286
  381SOL    HW2 1527   2.163   3.176   0.760  1.6267 -1.3178  0.8118
  381SOL    HW3 1528   2.314   3.176   0.749  1.6762  2.2256  0.8184
  381SOL    MW4 1529   2.238   3.215   0.737  0.6754  0.1279  0.1204
  382SOL     OW 1530   2.235   3.495   0.824 -0.4652  0.0193  0.3534
  382SOL    HW2 1531   2.238   3.408   0.784  0.0431  0.4906 -0.6718
  382SOL    HW3 1532   2.154   3.534   0.793 -1.0798 -0.3725  1.4435
  382SOL    MW4 1533   2.225   3.488   0.815 -0.4792  0.0298  0.3620
  383SOL     OW 1534   2.469   3.650   0.766 -0.2993  0.5912  0.7615
  383SOL    HW2 1535   2.540   3.593   0.795  0.8232  1.4622 -0.1966
  383SOL    HW3 1536   2.389   3.604   0.790  0.5727 -1.7072 -0.6403
  383SOL    MW4 1537   2.468   3.636   0.773 -0.0362  0.4029  0.4502
  384SOL     OW 1538   2.490   3.881   0.879  0.2653  0.0821 -0.4024
  384SOL    HW2 1539   2.410   3.925   0.850 -0.6852 -0.6017  1.0649
  384SOL    HW3 1540   2.481   3.791   0.846  0.5771  0.0985 -0.5256
  384SOL    MW4 1541   2.478   3.875   0.871  0.1810 -0.0060 -0.2251
  385SOL     OW 1542   2.251   3.976   0.766  0.0938  0.2906 -0.1357
  385SOL    HW2 1543   2.168   3.929   0.772  1.1316 -1.6444 -0.2997
  385SOL    HW3 1544   2.264   3.989   0.672 -0.6998  1.8684 -0.0344
  385SOL    MW4 1545   2.242   3.971   0.755  0.1260  0.2435 -0.1440
  386SOL     OW 1546   2.239   4.244   0.846 -0.0057  0.0775 -0.2120
  386SOL    HW2 1547   2.227   4.153   0.817  0.1013 -0.3690  1.1251
  386SOL    HW3 1548   2.160   4.290   0.816 -0.4148 -0.6247 -0.2156
  386SOL    MW4 1549   2.227   4.238   0.838 -0.0456 -0.0741 -0.0360
  387SOL     OW 1550   2.446   4.264   0.676 -0.1983  0.2266 -0.4241
  387SOL    HW2 1551   2.530   4.259   0.721  0.0266  0.1320 -0.8477
  387SOL    HW3 1552   2.382   4.277   0.745  0.3123  1.7303 -0.2066
  387SOL    MW4 1553   2.449   4.265   0.691 -0.1013  0.4125 -0.4513
  388SOL     OW 1554   2.943   0.012   0.835 -0.1443 -0.8222 -0.3753
  388SOL    HW2 1555   2.931  -0.080   0.812 -0.6386 -0.9131  0.2176
  388SOL    HW3 1556   2.867   0.056   0.797 -0.4957 -0.8375  0.2934
  388SOL    MW4 1557   2.931   0.006   0.827 -0.2559 -0.8362 -0.2089
  389SOL     OW 1558   2.457   4.518   0.590  0.2030 -0.3533 -0.1462
  389SOL    HW2 1559   2.473   4.565   0.671  0.0752 -0.4702 -0.0536
  389SOL    HW3 1560   2.459   4.425   0.615 -1.1928 -0.3580 -0.0313
  389SOL    MW4 1561   2.459   4.512   0.604  0.0020 -0.3693 -0.1188
  390SOL     OW 1562   2.695   0.396   0.816  0.2584  0.3316  0.0147
  390SOL    HW2 1563   2.704   0.406   0.911 -1.9345  1.1754  0.1787
  390SOL    HW3 1564   2.772   0.439   0.780  0.7756  0.6071  1.4068
  390SOL    MW4 1565   2.706   0.403   0.824  0.0373  0.4793  0.2200
  391SOL     OW 1566   2.972   0.513   0.769  0.1728 -0.6490  0.5670
  391SOL    HW2 1567   3.031   0.451   0.813  2.1085  0.3720 -0.5134
  391SOL    HW3 1568   2.987   0.497   0.676 -1.4092 -0.4801  0.2683
  391SOL    MW4 1569   2.982   0.502   0.762  0.2195 -0.4920  0.3851
  392SOL     OW 1570   2.928   0.791   0.812  0.4796 -0.0258  0.1137
  392SOL    HW2 1571   2.909   0.789   0.906 -0.3300  0.1994 -0.0439
  392SOL    HW3 1572   2.948   0.700   0.790 -1.6269 -0.4973  0.0436
  392SOL    MW4 1573   2.928   0.778   0.822  0.0948 -0.0583  0.0836
  393SOL     OW 1574   2.677   0.914   0.741  0.4147  0.1896 -0.5388
  393SOL    HW2 1575   2.765   0.885   0.762  0.0717  0.2731  1.1016
  393SOL    HW3 1576   2.685   0.956   0.656  1.8002 -0.5252 -0.7759
  393SOL    MW4 1577   2.689   0.916   0.733  0.5522  0.1063 -0.3537
  394SOL     OW 1578   2.692   1.175   0.859  0.4563 -0.3684  0.5965
  394SOL    HW2 1579   2.668   1.087   0.829 -1.2720  0.5909 -0.9504
  394SOL    HW3 1580   2.615   1.229   0.838  2.1992  1.8734 -0.1828
  394SOL    MW4 1581   2.678   1.170   0.852  0.4582  0.0540  0.2896
  395SOL     OW 1582   2.934   1.307   0.806  0.5563 -0.7801 -0.2426
  395SOL    HW2 1583   3.011   1.251   0.804  0.5530 -0.7499 -1.0340
  395SOL    HW3 1584   2.861   1.248   0.826  0.8254 -0.7575  0.8381
  395SOL    MW4 1585   2.935   1.292   0.809  0.5913 -0.7731 -0.2045
  396SOL     OW 1586   2.885   1.560   0.895 -0.2856 -0.7705  0.4917
  396SOL    HW2 1587   2.961   1.609   0.863 -0.1293 -1.0216  0.4801
  396SOL    HW3 1588   2.906   1.468   0.877 -1.4669 -0.7080 -1.3740
  396SOL    MW4 1589   2.898   1.554   0.888 -0.4209 -0.7953  0.2440
  397SOL     OW 1590   2.683   1.688   0.729 -0.1233  0.1281 -0.2247
  397SOL    HW2 1591   2.682   1.778   0.763  0.9909  0.0296  0.0859
  397SOL    HW3 1592   2.740   1.641   0.789 -0.6665 -0.7850 -0.4195
  397SOL    MW4 1593   2.690   1.694   0.742 -0.0480 -0.0054 -0.2095
  398SOL     OW 1594   2.668   1.938   0.841 -0.0098 -0.3046  0.1530
  398SOL    HW2 1595   2.661   1.944   0.936 -1.1802 -1.7073  0.1796
  398SOL    HW3 1596   2.590   1.981   0.808 -1.3519 -2.7658 -0.0358
  398SOL    MW4 1597   2.657   1.944   0.849 -0.3413 -0.8144  0.1316
  399SOL     OW 1598   2.832   2.111   0.690 -0.0913 -0.7602  0.1338
  399SOL    HW2 1599   2.877   2.177   0.742  0.6440 -0.3681 -0.9790
  399SOL    HW3 1600   2.785   2.058   0.754  0.5417 -0.0945  1.1641
  399SOL    MW4 1601   2.831   2.113   0.706  0.0892 -0.6206  0.1229
  400SOL     OW 1602   2.920   2.331   0.828 -0.1866 -0.0511  0.1081
  400SOL    HW2 1603   2.932   2.322   0.922  0.9613  0.8796  0.0521
  400SOL    HW3 1604   2.838   2.380   0.818  0.1992  0.6975  0.6367
  400SOL    MW4 1605   2.911   2.336   0.839  0.0158  0.1705  0.1704
  401SOL     OW 1606   2.675   2.428   0.712 -0.3571  0.3044  0.1549
  401SOL    HW2 1607   2.697   2.434   0.619  0.3685 -2.0839  0.1586
  401SOL    HW3 1608   2.673   2.519   0.742 -2.3907  1.2576 -2.5989
  401SOL    MW4 1609   2.677   2.441   0.703 -0.5297  0.1150 -0.2080
  402SOL     OW 1610   2.629   2.686   0.846 -0.0906 -0.5913  0.2474
  402SOL    HW2 1611   2.648   2.694   0.939  0.8186  0.3715 -0.0065
  402SOL    HW3 1612   2.690   2.747   0.804 -0.6834 -0.8085 -0.9525
  402SOL    MW4 1613   2.640   2.695   0.853 -0.0489 -0.4929  0.0556
  403SOL     OW 1614   2.817   2.845   0.475 -0.0719 -0.2269  0.1480
  403SOL    HW2 1615   2.847   2.766   0.430  0.6964 -0.2887  0.7727
  403SOL    HW3 1616   2.728   2.859   0.441  0.9768  0.5182 -2.4513
  403SOL    MW4 1617   2.809   2.837   0.464  0.1678 -0.1368 -0.1125
  404SOL     OW 1618   2.898   3.105   0.789 -0.2590  0.0111  0.0491
  404SOL    HW2 1619   2.832   3.157   0.743 -1.0664 -0.3704  0.7585
  404SOL    HW3 1620   2.868   3.014   0.780 -0.1112 -0.1172  0.8199
  404SOL    MW4 1621   2.885   3.100   0.781 -0.3461 -0.0561  0.2444
  405SOL     OW 1622   2.693   3.249   0.691 -0.0060  0.3411  0.8275
  405SOL    HW2 1623   2.682   3.333   0.736 -1.6699 -0.0298  1.1455
  405SOL    HW3 1624   2.627   3.192   0.730  0.3441 -0.7885 -0.1893
  405SOL    MW4 1625   2.683   3.252   0.702 -0.1794  0.1432  0.7353
  406SOL     OW 1626   2.680   3.482   0.859  0.2360 -0.1946  0.2730
  406SOL    HW2 1627   2.707   3.470   0.950  0.5645 -1.8518 -0.0267
  406SOL    HW3 1628   2.752   3.530   0.818  0.9992 -1.2155  0.4029
  406SOL    MW4 1629   2.693   3.487   0.866  0.3801 -0.5479  0.2506
  407SOL     OW 1630   2.890   3.629   0.751 -0.1834  0.0751 -0.2243
  407SOL    HW2 1631   2.908   3.716   0.787  0.7779 -0.0877 -0.2971
  407SOL    HW3 1632   2.917   3.636   0.659  2.0833 -0.9524  0.3249
  407SOL    MW4 1633   2.896   3.642   0.743  0.2425 -0.0819 -0.1615
  408SOL     OW 1634   2.941   3.900   0.845  0.0332 -0.4541  0.0213
  408SOL    HW2 1635   2.949   3.922   0.938  0.7410 -0.4120 -0.0485
  408SOL    HW3 1636   2.857   3.938   0.818  0.8989  1.5565  0.0686
  408SOL    MW4 1637   2.931   3.908   0.854  0.2408 -0.1833  0.0183
  409SOL     OW 1638   2.694   3.991   0.737 -0.0086  0.3808  0.0221
  409SOL    HW2 1639   2.621   3.952   0.784  1.1884 -1.1651  0.6737
  409SOL    HW3 1640   2.682   3.962   0.646 -0.7081  0.9080 -0.0544
  409SOL    MW4 1641   2.683   3.982   0.731  0.0570  0.2464  0.0979
  410SOL     OW 1642   2.710   4.274   0.799 -0.3022  0.0243 -0.5204
  410SOL    HW2 1643   2.710   4.274   0.894  0.5386 -0.4857 -0.5192
  410SOL    HW3 1644   2.730   4.183   0.775  0.9285  0.4659 -1.1781
  410SOL    MW4 1645   2.713   4.262   0.808 -0.0289  0.0153 -0.6070
  411SOL     OW 1646   2.931   4.427   0.735 -0.2343  0.1097 -0.2553
  411SOL    HW2 1647   3.004   4.378   0.774 -1.6806 -1.7153  0.2172
  411SOL    HW3 1648   2.854   4.374   0.754 -1.8884  2.7395  0.4845
  411SOL    MW4 1649   2.931   4.413   0.742 -0.6433  0.2159 -0.0953
  412SOL     OW 1650   3.341   0.042   0.854 -0.2741  0.6077 -0.2969
  412SOL    HW2 1651   3.358   0.034   0.947  0.8741  1.8763 -0.3838
  412SOL    HW3 1652   3.260   0.092   0.848 -0.4924  0.2877  0.0242
  412SOL    MW4 1653   3.333   0.047   0.865 -0.1514  0.7329 -0.2660
  413SOL     OW 1654   3.097   0.163   0.669 -0.3766  0.0063  0.0202
  413SOL    HW2 1655   3.110   0.246   0.714  2.0652  0.0953 -0.7851
  413SOL    HW3 1656   3.052   0.107   0.733 -0.2242  1.2813  1.2477
  413SOL    MW4 1657   3.092   0.166   0.683 -0.0343  0.1863  0.0759
  414SOL     OW 1658   3.189   0.343   0.862 -0.4311  0.5701  0.0193
  414SOL    HW2 1659   3.201   0.337   0.957 -0.2470 -2.6155 -0.1739
  414SOL    HW3 1660   3.271   0.382   0.831  0.7241 -1.1050  0.8892
  414SOL    MW4 1661   3.201   0.348   0.871 -0.2544 -0.0712  0.1086
  415SOL     OW 1662   3.406   0.483   0.758  0.3820 -0.2155 -0.4355
  415SOL    HW2 1663   3.492   0.448   0.782 -0.7151 -2.5365  0.2343
  415SOL    HW3 1664   3.404   0.477   0.662  1.8737  2.0971 -0.6399
  415SOL    MW4 1665   3.417   0.478   0.748  0.4341 -0.2166 -0.3741
  416SOL     OW 1666   3.344   0.769   0.809 -0.5042  0.2910  0.1941
  416SOL    HW2 1667   3.276   0.816   0.760  1.2884  1.1575 -1.5641
  416SOL    HW3 1668   3.339   0.679   0.777 -1.1306  0.2435  0.4199
  416SOL    MW4 1669   3.334   0.764   0.798 -0.3504  0.3991 -0.0080
  417SOL     OW 1670   3.144   0.934   0.691 -0.1696  0.5436 -0.1385
  417SOL    HW2 1671   3.175   1.008   0.743 -0.2019  0.8230 -0.5145
  417SOL    HW3 1672   3.071   0.899   0.741 -0.4493  1.0523 -0.1883
  417SOL    MW4 1673   3.139   0.939   0.704 -0.2107  0.6476 -0.1946
  418SOL     OW 1674   3.183   1.182   0.822  0.1025  0.2745 -0.8196
  418SOL    HW2 1675   3.203   1.166   0.914 -0.0164  0.6133 -0.7307
  418SOL    HW3 1676   3.237   1.258   0.799 -0.0855  0.3732 -0.9437
  418SOL    MW4 1677   3.193   1.190   0.831  0.0620  0.3322 -0.8243
  419SOL     OW 1678   3.481   1.315   0.603  0.0302 -0.0279 -0.3107
  419SOL    HW2 1679   3.524   1.264   0.672  0.3319  0.2121 -0.3225
  419SOL    HW3 1680   3.444   1.391   0.650 -0.8430 -0.5023 -0.2109
  419SOL    MW4 1681   3.481   1.318   0.619 -0.0452 -0.0588 -0.2991
  420SOL     OW 1682   3.423   1.485   0.833 -0.0035  0.2543  0.3149
  420SOL    HW2 1683   3.441   1.460   0.924  1.3070 -1.4504 -0.3824
  420SOL    HW3 1684   3.498   1.538   0.807 -0.7253  1.3619  0.4219
  420SOL    MW4 1685   3.435   1.489   0.842  0.0742  0.1755  0.2370
  421SOL     OW 1686   3.182   1.639   0.775  0.0296 -0.1739  0.2705
  421SOL    HW2 1687   3.264   1.609   0.814 -0.0805 -1.0462 -0.1570
  421SOL    HW3 1688   3.199   1.642   0.681 -0.0543  0.8450  0.2728
  421SOL    MW4 1689   3.195   1.636   0.768  0.0040 -0.1546  0.2144
  422SOL     OW 1690   3.174   1.886   0.883 -0.0467 -0.3159 -0.3127
  422SOL    HW2 1691   3.161   1.880   0.978 -1.2832  1.7196 -0.3344
  422SOL    HW3 1692   3.168   1.795   0.853 -0.7217 -0.8782  1.4301
  422SOL    MW4 1693   3.171   1.873   0.891 -0.2989 -0.1215 -0.0856
  423SOL     OW 1694   3.426   2.021   0.808  0.0297  0.2667 -0.3418
  423SOL    HW2 1695   3.418   2.111   0.839 -1.0732 -0.3898  1.3353
  423SOL    HW3 1696   3.345   1.979   0.836  1.4508 -1.8098  0.7462
  423SOL    MW4 1697   3.414   2.027   0.816  0.0717 -0.0939  0.0230
  424SOL     OW 1698   3.407   2.298   0.844  0.2335 -0.1535 -0.4804
  424SOL    HW2 1699   3.405   2.294   0.940  1.3291 -0.1624 -0.4515
  424SOL    HW3 1700   3.500   2.310   0.823  0.0668 -0.7104 -1.5606
  424SOL    MW4 1701   3.419   2.299   0.854  0.3561 -0.2282 -0.6191
  425SOL     OW 1702   3.044   2.480   0.640 -0.0177  0.2367 -0.1252
  425SOL    HW2 1703   3.129   2.443   0.617 -1.5070 -2.5714 -1.2717
  425SOL    HW3 1704   3.006   2.418   0.701 -1.5171  1.1258 -0.1313
  425SOL    MW4 1705   3.051   2.467   0.645 -0.4120 -0.0165 -0.2773
  426SOL     OW 1706   3.033   2.707   0.825  0.1436 -0.2696 -0.3667
  426SOL    HW2 1707   3.042   2.639   0.758  0.4538  0.2707 -0.8804
  426SOL    HW3 1708   3.096   2.774   0.800  0.3659 -0.1318  0.5610
  426SOL    MW4 1709   3.042   2.707   0.813  0.2138 -0.1801 -0.3121
  427SOL     OW 1710   3.255   2.875   0.705  0.0281 -0.1392  0.2133
  427SOL    HW2 1711   3.212   2.909   0.627 -2.1291 -2.3295  0.3854
  427SOL    HW3 1712   3.329   2.824   0.672  0.5123  0.8799 -0.2741
  427SOL    MW4 1713   3.259   2.873   0.691 -0.1927 -0.2937  0.1717
  428SOL     OW 1714   3.376   3.093   0.845 -0.1385 -0.1003  0.0646
  428SOL    HW2 1715   3.361   3.079   0.938 -1.0586  0.2908 -0.0222
  428SOL    HW3 1716   3.337   3.018   0.802 -1.3146  0.6034 -0.1184
  428SOL    MW4 1717   3.369   3.081   0.852 -0.4151  0.0442  0.0290
  429SOL     OW 1718   3.132   3.253   0.776  0.2806 -0.1517 -0.1104
  429SOL    HW2 1719   3.195   3.197   0.820  1.1091  0.9192  0.0900
  429SOL    HW3 1720   3.049   3.207   0.785  0.6006 -0.4019  1.7535
  429SOL    MW4 1721   3.129   3.240   0.783  0.4321 -0.0434  0.1619
  430SOL     OW 1722   3.163   3.511   0.859  0.1843 -0.2112 -0.5649
  430SOL    HW2 1723   3.146   3.427   0.817  0.5727  0.2738 -1.7253
  430SOL    HW3 1724   3.088   3.565   0.836  0.2677 -0.0237 -0.3970
  430SOL    MW4 1725   3.151   3.507   0.851  0.2466 -0.1224 -0.6958
  431SOL     OW 1726   3.399   3.647   0.798  0.6280 -0.4096  0.5722
  431SOL    HW2 1727   3.371   3.737   0.814  0.4916 -0.1173 -1.2498
  431SOL    HW3 1728   3.320   3.595   0.811  0.0976  0.0177 -0.9486
  431SOL    MW4 1729   3.385   3.652   0.802  0.5400 -0.3147  0.1311
  432SOL     OW 1730   3.372   3.925   0.864 -0.2874 -0.3867  0.0480
  432SOL    HW2 1731   3.379   3.911   0.959 -0.3030  2.0361  0.4327
  432SOL    HW3 1732   3.460   3.952   0.838 -0.7607  0.8457 -0.2871
  432SOL    MW4 1733   3.385   3.927   0.873 -0.3519  0.0956  0.0546
  433SOL     OW 1734   3.149   4.028   0.741 -0.2198  0.4803  0.0163
  433SOL    HW2 1735   3.228   3.988   0.777 -0.7073 -2.3820 -1.8544
  433SOL    HW3 1736   3.078   3.974   0.774 -1.0408  0.6058 -1.5046
  433SOL    MW4 1737   3.150   4.015   0.750 -0.3924  0.1192 -0.4312
  434SOL     OW 1738   3.150   4.297   0.825  0.3475  0.2825  0.1684
  434SOL    HW2 1739   3.225   4.343   0.786 -1.3014  1.7061 -1.3943
  434SOL    HW3 1740   3.151   4.211   0.783  0.0427  0.9396 -1.2195
  434SOL    MW4 1741   3.160   4.292   0.814  0.0897  0.5570 -0.2209
  435SOL     OW 1742   3.388   4.438   0.789  0.3760 -0.2512 -0.0180
  435SOL    HW2 1743   3.368   4.526   0.819 -1.2000 -0.4350 -0.4567
  435SOL    HW3 1744   3.414   4.448   0.698  0.3788 -0.2247 -0.0141
  435SOL    MW4 1745   3.389   4.451   0.781  0.1684 -0.2720 -0.0754
  436SOL     OW 1746   3.828   4.665   0.848  0.2928 -0.2725  0.4110
  436SOL    HW2 1747   3.893   4.724   0.811 -0.3160 -2.1903 -4.0815
  436SOL    HW3 1748   3.745   4.710   0.837 -0.0312 -1.3461 -1.8957
  436SOL    MW4 1749   3.826   4.679   0.842  0.1697 -0.6672 -0.4860
  437SOL     OW 1750   3.599   0.132   0.778 -0.5556  0.2966  0.0972
  437SOL    HW2 1751   3.512   0.094   0.788 -1.0618  1.6752  0.9473
  437SOL    HW3 1752   3.620   0.118   0.685 -1.0340 -1.3745  0.2197
  437SOL    MW4 1753   3.590   0.125   0.767 -0.6855  0.2580  0.2255
  438SOL     OW 1754   3.662   0.383   0.840 -0.0765  0.5609  0.1100
  438SOL    HW2 1755   3.669   0.382   0.936  2.3638  1.1830 -0.0240
  438SOL    HW3 1756   3.638   0.293   0.818  2.1810 -0.3593  1.1743
  438SOL    MW4 1757   3.660   0.371   0.850  0.5433  0.5215  0.2327
  439SOL     OW 1758   3.837   0.564   0.732  0.0780 -0.0642  0.4189
  439SOL    HW2 1759   3.829   0.647   0.778 -1.1348 -0.5165  1.0394
  439SOL    HW3 1760   3.758   0.515   0.756  0.5279 -1.1901 -0.3446
  439SOL    MW4 1761   3.826   0.569   0.742 -0.0227 -0.2724  0.4000
  440SOL     OW 1762   3.817   0.797   0.863  0.3435 -0.2516 -0.3030
  440SOL    HW2 1763   3.824   0.776   0.956  1.3863  0.3010 -0.2452
  440SOL    HW3 1764   3.893   0.853   0.846 -1.2771  1.8005 -0.8947
  440SOL    MW4 1765   3.828   0.801   0.873  0.2673  0.0921 -0.3734
  441SOL     OW 1766   3.586   0.900   0.728 -0.2922  0.0035 -0.1973
  441SOL    HW2 1767   3.650   0.858   0.785  0.0668  1.0880  0.2162
  441SOL    HW3 1768   3.506   0.848   0.738  0.4421 -1.2237 -0.5408
  441SOL    MW4 1769   3.584   0.888   0.737 -0.1479 -0.0153 -0.1881
  442SOL     OW 1770   3.628   1.167   0.777 -0.0912 -0.0333 -0.0355
  442SOL    HW2 1771   3.634   1.172   0.873  2.0568 -1.2151 -0.0648
  442SOL    HW3 1772   3.617   1.074   0.759 -0.7165  0.2155 -0.9339
  442SOL    MW4 1773   3.627   1.155   0.787  0.1097 -0.1564 -0.1579
  443SOL     OW 1774   3.875   1.273   0.716  0.0096 -0.2315  0.0959
  443SOL    HW2 1775   3.787   1.239   0.735  0.0799  0.0230  0.8956
  443SOL    HW3 1776   3.877   1.281   0.621 -1.0451  0.2776  0.1008
  443SOL    MW4 1777   3.863   1.270   0.706 -0.1203 -0.1307  0.2021
  444SOL     OW 1778   3.869   1.515   0.854 -0.3340 -0.1643  0.0486
  444SOL    HW2 1779   3.948   1.553   0.816 -0.4626 -0.1152 -0.1701
  444SOL    HW3 1780   3.862   1.428   0.814  0.3473 -0.7003  1.0796
  444SOL    MW4 1781   3.878   1.509   0.844 -0.2611 -0.2285  0.1557
  445SOL     OW 1782   3.630   1.651   0.777  0.3208  0.1235 -0.0466
  445SOL    HW2 1783   3.627   1.740   0.812 -0.0431 -0.3895  1.2349
  445SOL    HW3 1784   3.711   1.614   0.813  0.5113 -0.0444 -0.6427
  445SOL    MW4 1785   3.640   1.658   0.786  0.2979  0.0337  0.0439
  446SOL     OW 1786   3.640   1.904   0.897  0.2524  0.2234  0.1084
  446SOL    HW2 1787   3.711   1.957   0.861 -0.3578  0.5628 -0.6231
  446SOL    HW3 1788   3.560   1.949   0.868 -0.2687 -0.7365  0.0440
  446SOL    MW4 1789   3.639   1.917   0.889  0.1031  0.1415  0.0034
  447SOL     OW 1790   3.855   2.022   0.798  0.1574 -0.2165  0.0333
  447SOL    HW2 1791   3.932   1.971   0.822  1.3580  2.0990  1.3230
  447SOL    HW3 1792   3.874   2.056   0.711  0.7048  0.5255  0.4369
  447SOL    MW4 1793   3.868   2.020   0.790  0.3880  0.1869  0.2567
  448SOL     OW 1794   3.851   2.272   0.900  0.0754  0.6509  0.2593
  448SOL    HW2 1795   3.821   2.271   0.991  0.4043 -1.0648  0.3656
  448SOL    HW3 1796   3.845   2.181   0.872  0.3302  1.1079 -1.3297
  448SOL    MW4 1797   3.846   2.260   0.908  0.1524  0.4849  0.0637
  449SOL     OW 1798   3.654   2.398   0.747 -0.0702  0.3015  0.0994
  449SOL    HW2 1799   3.647   2.492   0.766  0.0637  0.6241 -1.4333
  449SOL    HW3 1800   3.729   2.369   0.798 -0.8199  0.7813  1.5122
  449SOL    MW4 1801   3.663   2.407   0.757 -0.1514  0.4074  0.0836
  450SOL     OW 1802   3.631   2.664   0.816  0.3397 -0.4233  0.4557
  450SOL    HW2 1803   3.626   2.690   0.908  2.0481 -0.8486  0.6726
  450SOL    HW3 1804   3.703   2.715   0.779 -0.2376 -0.3569 -0.6287
  450SOL    MW4 1805   3.640   2.674   0.823  0.4889 -0.4706  0.3412
  451SOL     OW 1806   3.862   2.804   0.730  0.3256  0.2988 -0.1971
  451SOL    HW2 1807   3.825   2.891   0.742 -2.1186 -0.5935 -1.0085
  451SOL    HW3 1808   3.902   2.806   0.643  0.5046  0.6712 -0.1072
  451SOL    MW4 1809   3.862   2.816   0.720  0.0268  0.2302 -0.2923
  452SOL     OW 1810   3.785   3.080   0.772 -0.2713  0.4797 -0.1278
  452SOL    HW2 1811   3.865   3.125   0.744  0.6460 -0.7682  0.3817
  452SOL    HW3 1812   3.714   3.139   0.749  0.8294  1.7745 -0.2855
  452SOL    MW4 1813   3.786   3.094   0.766 -0.0051  0.4859 -0.0814
  453SOL     OW 1814   3.586   3.261   0.751 -0.4221  0.7043 -0.3840
  453SOL    HW2 1815   3.517   3.198   0.772 -0.2925  1.3286  2.0757
  453SOL    HW3 1816   3.576   3.278   0.657 -3.7859  1.0297  0.0036
  453SOL    MW4 1817   3.576   3.255   0.741 -0.8488  0.8296 -0.0083
  454SOL     OW 1818   3.647   3.500   0.878  0.2466  0.0299 -0.1172
  454SOL    HW2 1819   3.630   3.414   0.840 -0.7431 -0.4407  1.3312
  454SOL    HW3 1820   3.574   3.554   0.847 -0.3774 -0.2659  0.8105
  454SOL    MW4 1821   3.635   3.495   0.869  0.0337 -0.0712  0.1963
  455SOL     OW 1822   3.847   3.574   0.686  0.4643 -0.0242  0.5319
  455SOL    HW2 1823   3.908   3.527   0.743 -0.3262 -1.5630  0.1404
  455SOL    HW3 1824   3.760   3.554   0.722  0.1401  1.7968  0.8303
  455SOL    MW4 1825   3.843   3.565   0.698  0.3172  0.0130  0.5196
  456SOL     OW 1826   3.852   3.811   0.877  0.0137 -0.3627 -0.0422
  456SOL    HW2 1827   3.771   3.853   0.851 -0.4273 -1.0522  0.1886
  456SOL    HW3 1828   3.855   3.730   0.826  0.5269 -0.3622 -0.0175
  456SOL    MW4 1829   3.842   3.806   0.867  0.0232 -0.4536 -0.0085
  457SOL     OW 1830   3.650   3.975   0.795  0.1211 -0.5281  0.6668
  457SOL    HW2 1831   3.651   4.063   0.832  2.6574 -0.3213  0.1627
  457SOL    HW3 1832   3.658   3.988   0.701 -1.0010 -1.2684  0.4533
  457SOL    MW4 1833   3.651   3.988   0.788  0.3077 -0.5985  0.5721
  458SOL     OW 1834   3.622   4.307   0.879  0.1991  0.1373 -0.2406
  458SOL    HW2 1835   3.682   4.340   0.812 -1.5124  1.3721 -1.2079
  458SOL    HW3 1836   3.535   4.335   0.850 -0.8009 -1.0662  1.4536
  458SOL    MW4 1837   3.618   4.315   0.866 -0.1586  0.1414 -0.1447
  459SOL     OW 1838   3.840   4.412   0.720 -0.0350  0.3586  0.0980
  459SOL    HW2 1839   3.910   4.364   0.763  0.4036  1.1977  0.3294
  459SOL    HW3 1840   3.845   4.501   0.757 -0.6687  0.6538 -0.5100
  459SOL    MW4 1841   3.850   4.418   0.731 -0.0608  0.5082  0.0483
  460SOL     OW 1842   4.214   4.606   0.831  0.2279  0.6910  0.1910
  460SOL    HW2 1843   4.247   4.598   0.921  0.1277  1.2988  0.2815
  460SOL    HW3 1844   4.148   4.675   0.836 -0.6474 -0.1141 -0.1090
  460SOL    MW4 1845   4.209   4.614   0.844  0.0992  0.6650  0.1633
  461SOL     OW 1846   4.040   0.204   0.824  0.1926 -0.4464 -0.0143
  461SOL    HW2 1847   4.036   0.295   0.852 -0.3709 -0.0742 -1.2595
  461SOL    HW3 1848   4.032   0.208   0.729 -0.9503 -1.8737  0.0066
  461SOL    MW4 1849   4.038   0.216   0.815 -0.0325 -0.5856 -0.1758
  462SOL     OW 1850   4.007   0.458   0.930 -0.1448 -0.0882  0.0534
  462SOL    HW2 1851   4.089   0.508   0.936  0.4581 -1.2408  1.6321
  462SOL    HW3 1852   3.950   0.513   0.876  0.8142  1.8964  0.9991
  462SOL    MW4 1853   4.010   0.472   0.924  0.0613  0.0216  0.3865
  463SOL     OW 1854   4.236   0.606   0.890  0.0376  0.3222  0.0380
  463SOL    HW2 1855   4.317   0.557   0.898 -0.6670 -1.0348 -0.9654
  463SOL    HW3 1856   4.244   0.654   0.808 -0.3636 -0.1718 -0.2907
  463SOL    MW4 1857   4.248   0.606   0.880 -0.1083  0.0780 -0.1377
  464SOL     OW 1858   4.208   0.793   0.666  0.4176 -0.2403 -0.0550
  464SOL    HW2 1859   4.128   0.836   0.697  0.8566 -0.2655  1.1277
  464SOL    HW3 1860   4.200   0.795   0.571 -0.0212  1.6016 -0.0023
  464SOL    MW4 1861   4.196   0.799   0.657  0.4176 -0.0006  0.1080
  465SOL     OW 1862   4.005   0.958   0.758 -0.1565 -0.1939 -0.2492
  465SOL    HW2 1863   4.055   1.032   0.792  0.1992 -0.8473  0.6804
  465SOL    HW3 1864   3.959   0.993   0.682 -0.8899  1.2978  0.8360
  465SOL    MW4 1865   4.006   0.973   0.753 -0.2063 -0.0833  0.0166
  466SOL     OW 1866   4.117   1.226   0.845 -0.1654  0.0282 -0.3778
  466SOL    HW2 1867   4.108   1.207   0.938  0.0928  0.2692 -0.3028
  466SOL    HW3 1868   4.028   1.242   0.814 -0.4088 -1.4133 -0.4630
  466SOL    MW4 1869   4.104   1.226   0.853 -0.1634 -0.1302 -0.3792
  467SOL     OW 1870   4.347   1.361   0.777 -0.3149 -0.6924  0.3266
  467SOL    HW2 1871   4.255   1.336   0.791 -0.2112 -1.7209 -0.7488
  467SOL    HW3 1872   4.397   1.283   0.800  0.2708 -0.2825  0.4622
  467SOL    MW4 1873   4.341   1.348   0.782 -0.2239 -0.7740  0.2026
  468SOL     OW 1874   4.299   1.578   0.950  0.0027  0.0308 -0.2149
  468SOL    HW2 1875   4.288   1.555   1.042 -0.3063 -1.5687 -0.6529
  468SOL    HW3 1876   4.313   1.495   0.905 -0.2661  0.7589 -1.6779
  468SOL    MW4 1877   4.300   1.564   0.956 -0.0736 -0.0841 -0.4657
  469SOL     OW 1878   4.094   1.628   0.767  0.2579 -0.1445 -0.2493
  469SOL    HW2 1879   4.169   1.610   0.823  0.5403 -0.6327 -0.7759
  469SOL    HW3 1880   4.131   1.639   0.680 -0.0397  1.8258 -0.1518
  469SOL    MW4 1881   4.109   1.627   0.763  0.2559  0.0510 -0.3059
  470SOL     OW 1882   4.078   1.882   0.873 -0.1861 -0.0549 -0.4307
  470SOL    HW2 1883   4.146   1.934   0.831 -0.7786  0.5891 -0.6120
  470SOL    HW3 1884   4.082   1.797   0.829  0.8412 -0.1878 -0.0765
  470SOL    MW4 1885   4.087   1.878   0.862 -0.1287  0.0126 -0.4079
  471SOL     OW 1886   4.260   2.058   0.783  0.5691  0.1325  0.0403
  471SOL    HW2 1887   4.349   2.030   0.802  0.1570 -1.2021  0.0760
  471SOL    HW3 1888   4.259   2.076   0.690  0.7984 -0.1506 -0.0176
  471SOL    MW4 1889   4.271   2.056   0.773  0.5450 -0.0810  0.0374
  472SOL     OW 1890   4.273   2.331   0.855 -0.2465  0.0080  0.0269
  472SOL    HW2 1891   4.206   2.370   0.799  0.8977  0.2162 -1.2287
  472SOL    HW3 1892   4.270   2.237   0.834 -0.9347 -0.1441  0.8169
  472SOL    MW4 1893   4.264   2.324   0.845 -0.1864  0.0154 -0.0345
  473SOL     OW 1894   4.056   2.432   0.701 -0.2791  0.4222 -0.0621
  473SOL    HW2 1895   4.047   2.513   0.752 -0.0085 -0.0834  0.8055
  473SOL    HW3 1896   3.986   2.376   0.733  0.8113 -0.4533  0.8323
  473SOL    MW4 1897   4.046   2.436   0.712 -0.0995  0.2400  0.1703
  474SOL     OW 1898   4.049   2.664   0.858 -0.2931  0.2330 -0.7494
  474SOL    HW2 1899   4.128   2.717   0.869  0.7589 -1.2581 -0.9468
  474SOL    HW3 1900   3.989   2.720   0.811  0.2703  1.7584  0.3087
  474SOL    MW4 1901   4.052   2.678   0.853 -0.0800  0.2375 -0.6359
  475SOL     OW 1902   4.245   2.858   0.796 -0.3326 -0.2252  0.0815
  475SOL    HW2 1903   4.330   2.823   0.822 -0.7870 -1.6980 -0.4021
  475SOL    HW3 1904   4.226   2.817   0.712 -0.9372  1.0923 -0.4459
  475SOL    MW4 1905   4.254   2.848   0.788 -0.4723 -0.2457 -0.0519
  476SOL     OW 1906   4.217   3.111   0.855  0.3159 -0.1891 -0.0092
  476SOL    HW2 1907   4.230   3.016   0.844  1.4871  0.0022 -0.2828
  476SOL    HW3 1908   4.299   3.150   0.825  0.1159  0.8756  0.8329
  476SOL    MW4 1909   4.229   3.103   0.849  0.4440 -0.0234  0.0658
  477SOL     OW 1910   4.015   3.243   0.732  0.6191 -0.2089  0.1797
  477SOL    HW2 1911   4.004   3.321   0.786  0.0141  0.7683 -1.3351
  477SOL    HW3 1912   4.093   3.200   0.768  1.3783  1.4665  0.5742
  477SOL    MW4 1913   4.024   3.247   0.744  0.6395  0.1411  0.0319
  478SOL     OW 1914   4.035   3.491   0.859 -0.1762 -0.2968  0.2373
  478SOL    HW2 1915   4.042   3.483   0.954 -1.5054  2.5410  0.6234
  478SOL    HW3 1916   4.118   3.530   0.832 -0.7732  1.2284  0.5629
  478SOL    MW4 1917   4.047   3.495   0.868 -0.4303  0.2789  0.3312
  479SOL     OW 1918   4.270   3.607   0.736  0.1876 -0.1736 -0.0828
  479SOL    HW2 1919   4.271   3.699   0.759  1.5300  0.0592 -1.0279
  479SOL    HW3 1920   4.273   3.606   0.640 -0.5381 -1.1868 -0.1110
  479SOL    MW4 1921   4.270   3.619   0.726  0.2689 -0.2765 -0.2112
  480SOL     OW 1922   4.257   3.854   0.830  0.1112 -0.0528  0.3007
  480SOL    HW2 1923   4.247   3.876   0.923 -1.0481  1.2958 -0.1179
  480SOL    HW3 1924   4.189   3.906   0.786  0.1178 -1.2924 -1.2161
  480SOL    MW4 1925   4.247   3.864   0.837 -0.0409 -0.0384  0.0453
  481SOL     OW 1926   4.041   3.992   0.732  0.0313 -0.0250 -0.5780
  481SOL    HW2 1927   3.987   3.928   0.777 -1.7557  2.0937  0.3838
  481SOL    HW3 1928   4.004   3.997   0.644 -0.3024  0.2431 -0.4216
  481SOL    MW4 1929   4.029   3.984   0.727 -0.2485  0.2899 -0.4305
  482SOL     OW 1930   4.033   4.258   0.830 -0.0226 -0.0857  0.0324
  482SOL    HW2 1931   4.102   4.289   0.771 -0.0261 -0.7007 -0.3035
  482SOL    HW3 1932   4.016   4.168   0.802  0.1359 -0.4680  1.1286
  482SOL    MW4 1933   4.040   4.250   0.818 -0.0022 -0.2173  0.1327
  483SOL     OW 1934   4.226   4.365   0.659  1.0073 -0.4114 -0.7439
  483SOL    HW2 1935   4.217   4.453   0.697 -2.3585 -1.4210  1.0377
  483SOL    HW3 1936   4.298   4.325   0.708  0.0481  0.0833  1.1222
  483SOL    MW4 1937   4.234   4.371   0.671  0.4367 -0.4793 -0.2627
  484SOL     OW 1938   0.239   4.653   1.098 -0.1582 -0.0669 -0.0472
  484SOL    HW2 1939   0.320   4.698   1.123  0.8647 -1.5322 -0.6521
  484SOL    HW3 1940   0.234   4.664   1.003 -0.0442 -0.9632 -0.1652
  484SOL    MW4 1941   0.249   4.660   1.089 -0.0082 -0.3785 -0.1426
  485SOL     OW 1942   0.014   0.077   1.239 -0.2924 -0.0757 -0.5972
  485SOL    HW2 1943  -0.062   0.043   1.192 -0.6609 -0.5359  0.3211
  485SOL    HW3 1944   0.089   0.031   1.202 -0.4461  0.4257 -1.5492
  485SOL    MW4 1945   0.014   0.067   1.228 -0.3613 -0.0703 -0.6016
  486SOL     OW 1946   0.064   0.363   1.189  0.0830 -0.5584  0.0894
  486SOL    HW2 1947  -0.014   0.406   1.224  0.7575 -1.0259  2.2613
  486SOL    HW3 1948   0.052   0.271   1.209  0.9831 -0.6904  0.0499
  486SOL    MW4 1949   0.052   0.357   1.196  0.2908 -0.6375  0.3708
  487SOL     OW 1950   0.289   0.524   1.236  0.2692 -0.3948 -0.4257
  487SOL    HW2 1951   0.274   0.615   1.211  0.9376 -0.2796 -0.4422
  487SOL    HW3 1952   0.211   0.477   1.206 -0.0014  0.1440 -0.5714
  487SOL    MW4 1953   0.277   0.530   1.229  0.3217 -0.3085 -0.4471
  488SOL     OW 1954   0.226   0.774   1.131 -0.6182  0.3586  0.3326
  488SOL    HW2 1955   0.308   0.815   1.158 -0.9031  1.1554 -0.0139
  488SOL    HW3 1956   0.158   0.825   1.174 -0.9395 -0.3399  0.6703
  488SOL    MW4 1957   0.228   0.786   1.140 -0.6982  0.3716  0.3314
  489SOL     OW 1958   0.002   0.900   1.221  0.2031  0.1058  0.1122
  489SOL    HW2 1959  -0.003   0.897   1.316  0.2385  1.7140  0.1723
  489SOL    HW3 1960  -0.077   0.855   1.191 -0.4020  0.6259  0.9044
  489SOL    MW4 1961  -0.009   0.894   1.229  0.1279  0.3866  0.2247
  490SOL     OW 1962   4.488   1.166   1.132 -0.2690 -0.0279 -0.0309
  490SOL    HW2 1963   4.410   1.203   1.176 -1.0889 -1.3897 -0.3054
  490SOL    HW3 1964   4.492   1.076   1.163  2.0888  0.4376  1.1340
  490SOL    MW4 1965   4.478   1.159   1.142 -0.0661 -0.1462  0.0866
  491SOL     OW 1966   0.241   1.301   1.219  0.5068 -0.1714  0.0732
  491SOL    HW2 1967   0.321   1.250   1.205  0.0153 -0.5256 -1.5570
  491SOL    HW3 1968   0.171   1.245   1.185 -0.3458  0.4755  0.7553
  491SOL    MW4 1969   0.242   1.287   1.213  0.3294 -0.1328 -0.0519
  492SOL     OW 1970   0.251   1.582   1.174  0.3223  0.1252  0.3324
  492SOL    HW2 1971   0.259   1.489   1.194  0.8485  0.1478  0.2476
  492SOL    HW3 1972   0.252   1.586   1.079  0.5229  0.2322  0.3382
  492SOL    MW4 1973   0.252   1.570   1.164  0.4182  0.1423  0.3220
  493SOL     OW 1974   0.009   1.672   1.235  0.0480 -0.3413  0.3476
  493SOL    HW2 1975  -0.003   1.751   1.182  1.2738  0.5453  1.3853
  493SOL    HW3 1976   0.100   1.647   1.221  0.0735 -0.7329  1.1854
  493SOL    MW4 1977   0.019   1.679   1.226  0.2131 -0.2760  0.5950
  494SOL     OW 1978   4.476   1.928   1.123 -0.2934 -0.0424 -0.2020
  494SOL    HW2 1979   4.408   1.990   1.148 -1.1246 -0.5551 -1.1543
  494SOL    HW3 1980   4.481   1.935   1.027  1.5490  0.5639 -0.0837
  494SOL    MW4 1981   4.468   1.937   1.113 -0.1600 -0.0300 -0.3120
  495SOL     OW 1982   0.231   2.034   1.209  0.0394 -0.2828 -0.3139
  495SOL    HW2 1983   0.248   2.119   1.168 -0.4711 -0.7145 -1.4336
  495SOL    HW3 1984   0.150   2.003   1.169 -1.0358 -0.2535  1.7813
  495SOL    MW4 1985   0.222   2.041   1.198 -0.1698 -0.3359 -0.1852
  496SOL     OW 1986   0.265   2.322   1.131  0.1220 -0.1870 -0.4581
  496SOL    HW2 1987   0.342   2.376   1.149  0.1986 -0.6031  0.4857
  496SOL    HW3 1988   0.191   2.374   1.162  0.2874 -1.0736  1.4923
  496SOL    MW4 1989   0.265   2.336   1.137  0.1539 -0.3589 -0.0763
  497SOL     OW 1990   0.022   2.457   1.221 -0.2409 -0.0572  0.4055
  497SOL    HW2 1991   0.006   2.468   1.314 -1.0034 -0.5710  0.3357
  497SOL    HW3 1992  -0.062   2.429   1.185  0.1339 -0.1804 -0.3848
  497SOL    MW4 1993   0.009   2.455   1.228 -0.2921 -0.1413  0.2920
  498SOL     OW 1994   0.017   2.735   1.161 -0.3412  0.1994 -0.2899
  498SOL    HW2 1995  -0.068   2.757   1.199 -1.2000  0.8995 -2.5034
  498SOL    HW3 1996   0.031   2.643   1.183 -2.6051 -0.4811 -1.5298
  498SOL    MW4 1997   0.007   2.726   1.169 -0.7532  0.2020 -0.7456
  499SOL     OW 1998   0.243   2.864   1.207 -0.4203 -0.3426  0.3775
  499SOL    HW2 1999   0.259   2.877   1.301  0.3362  0.3196  0.1678
  499SOL    HW3 2000   0.159   2.819   1.202 -1.6344  1.7763  1.2702
  499SOL    MW4 2001   0.234   2.860   1.219 -0.4807  0.0243  0.4676
  500SOL     OW 2002   0.208   3.124   1.122 -0.0693  0.1675  0.4997
  500SOL    HW2 2003   0.288   3.162   1.157 -0.3260  0.6050  0.6166
  500SOL    HW3 2004   0.213   3.032   1.146  1.9311 -0.5101 -2.3194
  500SOL    MW4 2005   0.219   3.117   1.130  0.1608  0.1358  0.1432
  501SOL     OW 2006   4.481   3.279   1.244 -0.0575 -0.1390 -0.6373
  501SOL    HW2 2007   4.398   3.239   1.218 -0.8174  1.4666 -0.7378
  501SOL    HW3 2008   4.547   3.226   1.200 -1.1154 -0.4468 -1.9070
  501SOL    MW4 2009   4.479   3.267   1.235 -0.2973  0.0323 -0.8180
  502SOL     OW 2010   4.464   3.543   1.158  0.1387 -0.1538 -0.2007
  502SOL    HW2 2011   4.491   3.458   1.194  0.9214  0.1631 -0.0160
  502SOL    HW3 2012   4.455   3.527   1.064  2.9818  0.1910 -0.5856
  502SOL    MW4 2013   4.467   3.530   1.150  0.6171 -0.0665 -0.2271
  503SOL     OW 2014   0.247   3.611   1.194  0.2603  0.2635  0.3190
  503SOL    HW2 2015   0.243   3.608   1.290 -0.0062 -1.8728  0.2613
  503SOL    HW3 2016   0.157   3.594   1.166  0.1817  1.6905 -0.3058
  503SOL    MW4 2017   0.235   3.608   1.203  0.2148  0.1699  0.2290
  504SOL     OW 2018   0.239   3.886   1.111  0.4307 -0.1243  0.4095
  504SOL    HW2 2019   0.163   3.915   1.162 -0.5234 -1.2776 -0.3281
  504SOL    HW3 2020   0.260   3.800   1.147  0.7010 -0.2834 -0.1297
  504SOL    MW4 2021   0.232   3.878   1.122  0.3405 -0.2975  0.2411
  505SOL     OW 2022   0.006   4.008   1.209 -0.2327  0.3413 -0.5766
  505SOL    HW2 2023  -0.003   3.988   1.302 -0.3659  1.2705 -0.3827
  505SOL    HW3 2024  -0.075   3.975   1.170 -1.0273  1.6339 -0.0564
  505SOL    MW4 2025  -0.006   4.001   1.216 -0.3551  0.6345 -0.4824
  506SOL     OW 2026   0.031   4.277   1.093  0.0258  0.2599 -0.1441
  506SOL    HW2 2027   0.103   4.327   1.132  0.3702  0.0376 -0.4881
  506SOL    HW3 2028   0.034   4.192   1.137  0.3055  0.0689 -0.5241
  506SOL    MW4 2029   0.041   4.272   1.104  0.1082  0.2053 -0.2396
  507SOL     OW 2030   0.265   4.396   1.201 -0.1138  0.1503  0.1962
  507SOL    HW2 2031   0.255   4.393   1.296  0.6765  1.2732  0.3273
  507SOL    HW3 2032   0.270   4.489   1.180 -1.7096 -0.0540 -1.1150
  507SOL    MW4 2033   0.265   4.408   1.211 -0.2201  0.2715  0.0405
  508SOL     OW 2034   0.665   0.003   1.078 -0.0476  0.1275  0.3431
  508SOL    HW2 2035   0.734   0.056   1.118  1.1891 -1.0890 -0.1414
  508SOL    HW3 2036   0.684  -0.086   1.107 -0.9873 -0.3166 -0.3965
  508SOL    MW4 2037   0.677  -0.002   1.087 -0.0084 -0.0916  0.1816
  509SOL     OW 2038   0.451   0.130   1.201  0.4358  0.0572  0.2211
  509SOL    HW2 2039   0.451   0.215   1.158 -1.8732 -0.8871 -1.7486
  509SOL    HW3 2040   0.514   0.078   1.150 -1.1720 -0.6012 -1.1463
  509SOL    MW4 2041   0.459   0.134   1.189 -0.0809 -0.1542 -0.2192
  510SOL     OW 2042   0.467   0.375   1.100  0.5876  0.0459 -0.2321
  510SOL    HW2 2043   0.405   0.439   1.134  0.3398 -0.7396  0.8389
  510SOL    HW3 2044   0.452   0.373   1.006 -1.4134 -0.5485  0.0891
  510SOL    MW4 2045   0.457   0.383   1.092  0.2909 -0.1362 -0.0484
  511SOL     OW 2046   0.689   0.501   1.232  0.2524 -0.2035  0.1127
  511SOL    HW2 2047   0.677   0.591   1.201  1.5014  0.3343  1.1217
  511SOL    HW3 2048   0.608   0.457   1.209 -1.4853  1.8718  1.9658
  511SOL    MW4 2049   0.677   0.507   1.225  0.1879  0.1413  0.4903
  512SOL     OW 2050   0.683   0.761   1.143 -0.4108 -0.0197  0.0390
  512SOL    HW2 2051   0.602   0.803   1.171  0.0224  1.2958 -0.5930
  512SOL    HW3 2052   0.673   0.747   1.049 -0.2168 -0.5748  0.0966
  512SOL    MW4 2053   0.671   0.765   1.134 -0.3280  0.0806 -0.0368
  513SOL     OW 2054   0.452   0.886   1.222  0.1659 -0.1376 -0.0025
  513SOL    HW2 2055   0.448   0.888   1.317  0.8397  0.1573  0.0271
  513SOL    HW3 2056   0.454   0.978   1.196  0.0300 -0.2161 -0.2959
  513SOL    MW4 2057   0.452   0.899   1.231  0.2369 -0.1091 -0.0373
  514SOL     OW 2058   0.462   1.152   1.144 -0.0963  0.3425  0.1101
  514SOL    HW2 2059   0.544   1.198   1.166  0.3890 -0.4086 -0.1106
  514SOL    HW3 2060   0.469   1.136   1.050 -0.5074  0.2933  0.0910
  514SOL    MW4 2061   0.474   1.156   1.135 -0.0865  0.2369  0.0785
  515SOL     OW 2062   0.699   1.288   1.182 -0.1671 -0.0193  0.1242
  515SOL    HW2 2063   0.768   1.232   1.149  1.0545  1.2018  0.5592
  515SOL    HW3 2064   0.699   1.365   1.125 -0.9285  0.1450  0.3285
  515SOL    MW4 2065   0.708   1.291   1.170 -0.1064  0.1635  0.2085
  516SOL     OW 2066   0.682   1.559   1.103  0.6222 -0.0110 -0.0981
  516SOL    HW2 2067   0.761   1.599   1.139  1.2539 -2.0530  0.8388
  516SOL    HW3 2068   0.610   1.601   1.150  1.1288  1.6541 -0.7572
  516SOL    MW4 2069   0.683   1.570   1.114  0.7724 -0.0607 -0.0614
  517SOL     OW 2070   0.489   1.706   1.228 -0.1933 -0.0612  0.2442
  517SOL    HW2 2071   0.480   1.716   1.323 -0.2539 -0.3433  0.2685
  517SOL    HW3 2072   0.410   1.661   1.201 -0.3851  0.4258 -0.0061
  517SOL    MW4 2073   0.478   1.702   1.237 -0.2266 -0.0342  0.2144
  518SOL     OW 2074   0.461   1.946   1.071 -0.0128  0.1299  0.0908
  518SOL    HW2 2075   0.491   1.869   1.118  0.2881  0.3722  0.3001
  518SOL    HW3 2076   0.386   1.977   1.120  0.3263  0.4066  0.4390
  518SOL    MW4 2077   0.455   1.940   1.084  0.0716  0.1983  0.1644
  519SOL     OW 2078   0.711   2.066   1.215 -0.0808 -0.2758 -0.0018
  519SOL    HW2 2079   0.708   2.070   1.310  0.1680  1.9558 -0.0504
  519SOL    HW3 2080   0.622   2.046   1.188 -0.7507  1.7146  0.6349
  519SOL    MW4 2081   0.699   2.064   1.224 -0.1364  0.2812  0.0758
  520SOL     OW 2082   0.703   2.309   1.110  0.3892 -0.4397 -0.0816
  520SOL    HW2 2083   0.623   2.352   1.142  0.4450  0.3699 -1.0197
  520SOL    HW3 2084   0.698   2.221   1.147 -1.7799 -0.9466 -1.4836
  520SOL    MW4 2085   0.692   2.303   1.119  0.1104 -0.3998 -0.3903
  521SOL     OW 2086   0.500   2.484   1.180 -0.2752  0.2140 -0.0018
  521SOL    HW2 2087   0.487   2.483   1.275 -2.3466 -1.6490 -0.2522
  521SOL    HW3 2088   0.486   2.575   1.155 -0.6096  0.5624  1.3900
  521SOL    MW4 2089   0.496   2.496   1.189 -0.5926  0.0142  0.1488
  522SOL     OW 2090   0.468   2.742   1.111 -0.2405  0.9800  0.3524
  522SOL    HW2 2091   0.381   2.770   1.138 -1.5063 -1.2093 -1.2473
  522SOL    HW3 2092   0.468   2.750   1.015  0.5730 -0.9050  0.1587
  522SOL    MW4 2093   0.457   2.746   1.102 -0.3002  0.4425  0.1158
  523SOL     OW 2094   0.694   2.854   1.241  0.2603 -0.0648  0.5051
  523SOL    HW2 2095   0.693   2.947   1.218 -0.6512 -0.3796 -0.7390
  523SOL    HW3 2096   0.614   2.819   1.202  0.9636 -1.5177  0.3738
  523SOL    MW4 2097   0.683   2.862   1.233  0.2328 -0.2980  0.3236
  524SOL     OW 2098   0.677   3.110   1.151 -0.3020 -0.1120 -0.1111
  524SOL    HW2 2099   0.761   3.154   1.162  0.2773 -0.6811 -2.1494
  524SOL    HW3 2100   0.658   3.116   1.058 -3.1450  1.0841  0.5117
  524SOL    MW4 2101   0.686   3.116   1.140 -0.6007 -0.0293 -0.2979
  525SOL     OW 2102   0.436   3.220   1.247 -0.3940  0.2252  0.5999
  525SOL    HW2 2103   0.434   3.305   1.203 -0.5733 -0.1285 -0.0920
  525SOL    HW3 2104   0.518   3.180   1.217 -0.2765  0.1813  0.9790
  525SOL    MW4 2105   0.447   3.226   1.237 -0.4022  0.1727  0.5586
  526SOL     OW 2106   0.448   3.462   1.148 -0.2170 -0.1896  0.0796
  526SOL    HW2 2107   0.518   3.516   1.186 -0.0210 -0.1473 -0.3462
  526SOL    HW3 2108   0.368   3.511   1.166 -0.0362  0.2549 -0.3354
  526SOL    MW4 2109   0.447   3.476   1.155 -0.1673 -0.1253 -0.0313
  527SOL     OW 2110   0.667   3.603   1.248  0.1231 -0.0207 -0.5019
  527SOL    HW2 2111   0.683   3.605   1.342 -2.9994 -0.7764  0.1296
  527SOL    HW3 2112   0.672   3.695   1.221  1.6756  0.1327  0.2505
  527SOL    MW4 2113   0.669   3.616   1.256 -0.0841 -0.1002 -0.3193
  528SOL     OW 2114   0.680   3.857   1.146 -0.1447 -0.1269  0.2462
  528SOL    HW2 2115   0.605   3.910   1.172  0.1201  0.1137  0.5242
  528SOL    HW3 2116   0.684   3.866   1.050 -0.7659 -0.5379  0.1825
  528SOL    MW4 2117   0.670   3.865   1.137 -0.1917 -0.1494  0.2745
  529SOL     OW 2118   0.457   3.994   1.229  0.1442 -0.7748 -0.4393
  529SOL    HW2 2119   0.463   4.085   1.200 -0.3716 -0.2089  1.1780
  529SOL    HW3 2120   0.374   3.963   1.194  0.5661 -0.7863 -1.4355
  529SOL    MW4 2121   0.447   4.002   1.221  0.1318 -0.7016 -0.3573
  530SOL     OW 2122   0.481   4.240   1.081 -0.3319 -0.0312  0.3272
  530SOL    HW2 2123   0.561   4.283   1.113 -1.0716  2.6019 -1.1928
  530SOL    HW3 2124   0.410   4.295   1.114 -1.2606  0.5559 -2.5000
  530SOL    MW4 2125   0.483   4.253   1.090 -0.5520  0.3937 -0.2463
  531SOL     OW 2126   0.681   4.402   1.197 -0.1359 -0.0724 -0.0074
  531SOL    HW2 2127   0.670   4.394   1.291  0.6926  0.4177  0.1370
  531SOL    HW3 2128   0.761   4.352   1.178  0.8108  1.4670 -0.1613
  531SOL    MW4 2129   0.690   4.394   1.207  0.0984  0.1953 -0.0087
  532SOL     OW 2130   1.114   4.663   1.108  0.0136 -0.4855  0.3354
  532SOL    HW2 2131   1.114   4.570   1.134  0.7868 -0.7584 -0.6113
  532SOL    HW3 2132   1.121   4.661   1.013  1.4674  0.5680  0.4121
  532SOL    MW4 2133   1.115   4.650   1.099  0.3074 -0.3825  0.2206
  533SOL     OW 2134   0.868   0.150   1.185 -0.2603 -0.2472  0.3071
  533SOL    HW2 2135   0.885   0.138   1.278 -1.1684 -0.0036  0.5064
  533SOL    HW3 2136   0.934   0.097   1.141 -1.1614 -2.0628  1.1036
  533SOL    MW4 2137   0.879   0.142   1.191 -0.4990 -0.4546  0.4385
  534SOL     OW 2138   0.919   0.404   1.087 -0.1537 -0.4005 -0.3982
  534SOL    HW2 2139   0.913   0.310   1.103  0.0763 -0.2574  0.5781
  534SOL    HW3 2140   0.842   0.441   1.131 -0.0529 -0.1004 -0.4688
  534SOL    MW4 2141   0.908   0.397   1.095 -0.1101 -0.3420 -0.2787
  535SOL     OW 2142   1.138   0.505   1.209  0.1654  0.3526 -0.2301
  535SOL    HW2 2143   1.141   0.504   1.305  2.9223 -1.8210 -0.2777
  535SOL    HW3 2144   1.066   0.446   1.187 -0.1435  0.4601  0.4699
  535SOL    MW4 2145   1.129   0.497   1.219  0.4884  0.0800 -0.1440
  536SOL     OW 2146   1.163   0.776   1.166 -0.1058  0.5149  0.5339
  536SOL    HW2 2147   1.072   0.801   1.183 -0.3671 -0.3726  0.4720
  536SOL    HW3 2148   1.167   0.683   1.189  0.5239  0.2930 -0.4409
  536SOL    MW4 2149   1.151   0.767   1.171 -0.0572  0.3686  0.3971
  537SOL     OW 2150   0.913   0.892   1.224  0.0231 -0.0053  0.5118
  537SOL    HW2 2151   0.901   0.978   1.183  0.0756  0.2715  1.0684
  537SOL    HW3 2152   0.842   0.838   1.189  0.4384  0.0411 -0.4307
  537SOL    MW4 2153   0.902   0.896   1.214  0.0848  0.0373  0.4609
  538SOL     OW 2154   0.914   1.146   1.083 -0.4249  0.3442  0.5782
  538SOL    HW2 2155   0.981   1.212   1.101 -0.7112  0.5404  0.9235
  538SOL    HW3 2156   0.925   1.126   0.990  1.3576 -1.0098  1.0593
  538SOL    MW4 2157   0.924   1.152   1.073 -0.2275  0.1914  0.6873
  539SOL     OW 2158   1.109   1.319   1.175 -0.3406 -0.1324  0.3697
  539SOL    HW2 2159   1.106   1.317   1.270 -0.4790 -0.8698  0.3512
  539SOL    HW3 2160   1.190   1.275   1.151 -0.7525 -0.7778  0.1252
  539SOL    MW4 2161   1.119   1.313   1.184 -0.4132 -0.3148  0.3350
  540SOL     OW 2162   1.162   1.563   1.088 -0.6151  0.7610  0.2473
  540SOL    HW2 2163   1.138   1.474   1.113 -1.4729  1.0974  0.6508
  540SOL    HW3 2164   1.131   1.572   0.998 -0.3405  0.5924  0.1326
  540SOL    MW4 2165   1.155   1.553   1.080 -0.6921  0.7831  0.2854
  541SOL     OW 2166   0.929   1.676   1.183  0.4472 -0.1493  0.2576
  541SOL    HW2 2167   0.939   1.768   1.159  0.2749 -0.2214 -0.0980
  541SOL    HW3 2168   1.009   1.634   1.152 -0.4851 -0.5468 -1.7057
  541SOL    MW4 2169   0.941   1.683   1.175  0.3014 -0.2112 -0.0483
  542SOL     OW 2170   0.950   1.942   1.113 -0.1201 -0.2061  0.2871
  542SOL    HW2 2171   1.027   1.977   1.159 -0.0644  1.2631 -0.8836
  542SOL    HW3 2172   0.877   1.993   1.147 -0.2908 -0.2144 -0.0620
  542SOL    MW4 2173   0.951   1.953   1.124 -0.1353 -0.0134  0.0866
  543SOL     OW 2174   1.172   2.068   1.236 -0.0314  0.1444 -0.2015
  543SOL    HW2 2175   1.151   2.090   1.327  0.8959  0.4056 -0.0491
  543SOL    HW3 2176   1.161   2.151   1.188  1.3524  0.4672  0.0076
  543SOL    MW4 2177   1.168   2.082   1.241  0.2735  0.2214 -0.1538
  544SOL     OW 2178   1.126   2.303   1.102 -0.3082  0.1640 -0.6301
  544SOL    HW2 2179   1.198   2.354   1.139  0.8551 -1.0125 -1.2202
  544SOL    HW3 2180   1.047   2.340   1.141  0.6179  1.4630  0.0411
  544SOL    MW4 2181   1.125   2.315   1.112 -0.0326  0.1802 -0.6194
  545SOL     OW 2182   0.928   2.427   1.245  0.3135 -0.1051 -0.3458
  545SOL    HW2 2183   0.921   2.467   1.332 -0.0541  0.8386 -0.7907
  545SOL    HW3 2184   0.838   2.400   1.224  0.3604 -0.1290 -0.5181
  545SOL    MW4 2185   0.915   2.429   1.253  0.2712  0.0163 -0.4272
  546SOL     OW 2186   0.891   2.731   1.122  0.3996  0.0192  0.1779
  546SOL    HW2 2187   0.902   2.646   1.165 -2.8431 -1.1903 -1.1628
  546SOL    HW3 2188   0.820   2.773   1.170 -0.0030  0.6978 -0.9768
  546SOL    MW4 2189   0.883   2.725   1.134 -0.0814 -0.0508 -0.1514
  547SOL     OW 2190   1.158   2.861   1.198 -0.4234 -0.1594 -0.0625
  547SOL    HW2 2191   1.164   2.869   1.293 -0.9169  0.0986 -0.0533
  547SOL    HW3 2192   1.083   2.804   1.184 -0.9979  0.6612 -0.3332
  547SOL    MW4 2193   1.149   2.854   1.209 -0.5643 -0.0171 -0.0970
  548SOL     OW 2194   1.127   3.112   1.073 -0.1837  0.2053 -0.0613
  548SOL    HW2 2195   1.138   3.020   1.097 -1.7143  0.0730  0.1869
  548SOL    HW3 2196   1.114   3.110   0.978  1.1446  0.2927 -0.2467
  548SOL    MW4 2197   1.127   3.100   1.064 -0.2104  0.1993 -0.0530
  549SOL     OW 2198   0.900   3.263   1.180  0.0686  0.0760  0.3130
  549SOL    HW2 2199   0.908   3.352   1.145 -0.2931  0.3583  0.9519
  549SOL    HW3 2200   0.975   3.216   1.143 -0.6250  0.2057 -1.3429
  549SOL    MW4 2201   0.911   3.269   1.170 -0.0707  0.1304  0.1788
  550SOL     OW 2202   0.911   3.520   1.126 -0.0463 -0.3642  0.5415
  550SOL    HW2 2203   0.826   3.551   1.157 -0.6222 -0.0330 -1.3360
  550SOL    HW3 2204   0.904   3.522   1.031  1.0683 -3.0888  0.3710
  550SOL    MW4 2205   0.899   3.524   1.118  0.0248 -0.6800  0.2713
  551SOL     OW 2206   1.138   3.646   1.267 -0.1516 -0.0900 -0.4566
  551SOL    HW2 2207   1.208   3.598   1.223  0.0633  0.4081 -0.6589
  551SOL    HW3 2208   1.057   3.610   1.230  0.0271  0.3858 -1.3144
  551SOL    MW4 2209   1.136   3.635   1.257 -0.0996  0.0385 -0.5965
  552SOL     OW 2210   1.149   3.886   1.121  0.0043  0.0236  0.2093
  552SOL    HW2 2211   1.070   3.933   1.146 -0.1807  0.2263 -0.7461
  552SOL    HW3 2212   1.145   3.804   1.171  0.3047  0.9871  1.8439
  552SOL    MW4 2213   1.138   3.881   1.131  0.0196  0.1775  0.2989
  553SOL     OW 2214   0.914   4.006   1.210 -0.3286 -0.3783  0.0507
  553SOL    HW2 2215   0.919   4.005   1.305 -1.7132 -0.6094  0.1233
  553SOL    HW3 2216   0.845   3.943   1.188  0.0466 -0.4075 -1.1134
  553SOL    MW4 2217   0.906   3.997   1.220 -0.4618 -0.4127 -0.0933
  554SOL     OW 2218   0.906   4.270   1.114  0.4926  0.2683  0.0552
  554SOL    HW2 2219   0.904   4.180   1.145  3.7509 -0.2156 -0.8912
  554SOL    HW3 2220   0.893   4.263   1.019  1.7406  0.6873 -0.1546
  554SOL    MW4 2221   0.904   4.258   1.105  1.0872  0.2598 -0.0974
  555SOL     OW 2222   1.116   4.406   1.189 -0.1571 -0.2802  0.1283
  555SOL    HW2 2223   1.143   4.385   1.278  0.6545 -0.0556 -0.0578
  555SOL    HW3 2224   1.030   4.365   1.179 -0.6708  0.4716  1.3160
  555SOL    MW4 2225   1.108   4.398   1.199 -0.1178 -0.1514  0.2604
  556SOL     OW 2226   1.589   4.615   1.114 -0.3714 -0.0144  0.2582
  556SOL    HW2 2227   1.649   4.668   1.167 -1.6244  1.6049  0.1018
  556SOL    HW3 2228   1.582   4.532   1.161 -1.0780  1.2081  2.3616
  556SOL    MW4 2229   1.596   4.611   1.127 -0.6299  0.3606  0.5150
  557SOL     OW 2230   1.353   0.102   1.203  0.7593  0.0079 -0.2013
  557SOL    HW2 2231   1.425   0.048   1.171  0.7046 -0.4489  0.4243
  557SOL    HW3 2232   1.274   0.060   1.169  0.8295  1.0168 -1.6209
  557SOL    MW4 2233   1.352   0.089   1.194  0.7613  0.0807 -0.3061
  558SOL     OW 2234   1.356   0.368   1.123 -0.3680 -0.6182  0.5932
  558SOL    HW2 2235   1.359   0.279   1.158  0.3660 -1.2693 -1.1226
  558SOL    HW3 2236   1.276   0.406   1.162 -1.3570 -2.4079  0.3630
  558SOL    MW4 2237   1.346   0.361   1.133 -0.4016 -0.9402  0.3364
  559SOL     OW 2238   1.547   0.522   1.259 -0.0618 -0.2100  0.3509
  559SOL    HW2 2239   1.555   0.603   1.210  0.0397 -0.6995 -0.4577
  559SOL    HW3 2240   1.470   0.479   1.221  1.0358 -1.3936 -0.5666
  559SOL    MW4 2241   1.538   0.527   1.248  0.0964 -0.4308  0.1232
  560SOL     OW 2242   1.565   0.783   1.163 -0.2641  0.0171  0.0080
  560SOL    HW2 2243   1.655   0.814   1.178 -0.8696  1.7172  0.2380
  560SOL    HW3 2244   1.560   0.767   1.069  0.3915 -0.4811  0.0496
  560SOL    MW4 2245   1.577   0.785   1.153 -0.2575  0.1757  0.0438
  561SOL     OW 2246   1.375   0.939   1.265 -0.1768  0.2331 -0.2723
  561SOL    HW2 2247   1.451   0.891   1.231 -0.2985 -0.5375  0.5040
  561SOL    HW3 2248   1.300   0.904   1.216 -0.2498 -0.2864  0.2071
  561SOL    MW4 2249   1.375   0.928   1.254 -0.2025  0.0629 -0.1066
  562SOL     OW 2250   1.346   1.171   1.116 -0.0121 -0.0110  0.0888
  562SOL    HW2 2251   1.362   1.104   1.182 -0.5740 -0.2652 -0.0335
  562SOL    HW3 2252   1.320   1.123   1.038  1.5114  0.2460 -0.5858
  562SOL    MW4 2253   1.345   1.156   1.115  0.1148 -0.0106 -0.0163
  563SOL     OW 2254   1.557   1.307   1.252  0.3602  0.6940  0.1902
  563SOL    HW2 2255   1.635   1.266   1.215  0.1068  0.2209  0.1755
  563SOL    HW3 2256   1.484   1.264   1.207  0.1197  1.9968 -0.6980
  563SOL    MW4 2257   1.558   1.296   1.241  0.2951  0.8035  0.0711
  564SOL     OW 2258   1.570   1.522   1.081  0.1182  0.1332 -0.1796
  564SOL    HW2 2259   1.650   1.562   1.115 -0.2664  0.9823 -0.2649
  564SOL    HW3 2260   1.562   1.439   1.128  1.0062  0.0811 -0.1181
  564SOL    MW4 2261   1.580   1.516   1.092  0.1846  0.2384 -0.1827
  565SOL     OW 2262   1.386   1.688   1.191  0.0708 -0.4228 -0.0036
  565SOL    HW2 2263   1.456   1.632   1.158  0.8937  0.5687  0.0570
  565SOL    HW3 2264   1.305   1.645   1.162  0.6092 -2.6264  1.5645
  565SOL    MW4 2265   1.384   1.675   1.183  0.2504 -0.5827  0.2113
  566SOL     OW 2266   1.375   1.949   1.063 -0.0380  0.4619 -0.4175
  566SOL    HW2 2267   1.405   1.865   1.098  1.1770  1.0579  0.0052
  566SOL    HW3 2268   1.317   1.984   1.131  1.5365  1.1639  0.5769
  566SOL    MW4 2269   1.371   1.943   1.077  0.3300  0.6331 -0.2305
  567SOL     OW 2270   1.569   2.070   1.211 -0.0321  0.0178 -0.6146
  567SOL    HW2 2271   1.580   2.148   1.157 -1.7189  0.3683 -0.4669
  567SOL    HW3 2272   1.496   2.023   1.170 -0.2305 -0.5517  0.3839
  567SOL    MW4 2273   1.561   2.074   1.199 -0.2808 -0.0111 -0.4634
  568SOL     OW 2274   1.576   2.330   1.101 -0.2041 -0.0796  0.4862
  568SOL    HW2 2275   1.491   2.365   1.128  0.4702  1.1168  1.0785
  568SOL    HW3 2276   1.572   2.330   1.005 -0.6940  0.4256  0.5029
  568SOL    MW4 2277   1.564   2.334   1.092 -0.1798  0.1449  0.5665
  569SOL     OW 2278   1.334   2.458   1.177 -0.2085  0.2770  0.1995
  569SOL    HW2 2279   1.349   2.462   1.271  1.0689  0.7559 -0.0138
  569SOL    HW3 2280   1.343   2.548   1.147 -1.8366  0.3146 -0.2085
  569SOL    MW4 2281   1.337   2.470   1.185 -0.2548  0.3451  0.1175
  570SOL     OW 2282   1.376   2.715   1.109  0.3410  0.3859 -0.0931
  570SOL    HW2 2283   1.453   2.765   1.137  1.5651 -1.1010 -0.7472
  570SOL    HW3 2284   1.302   2.765   1.143  1.6136  1.3798  1.3159
  570SOL    MW4 2285   1.377   2.728   1.117  0.6704  0.3208  0.0065
  571SOL     OW 2286   1.573   2.872   1.206 -0.0689 -0.0827 -0.6715
  571SOL    HW2 2287   1.653   2.837   1.166  0.3265  1.5021 -1.3141
  571SOL    HW3 2288   1.566   2.961   1.171 -1.9602 -0.0970 -0.3832
  571SOL    MW4 2289   1.583   2.879   1.196 -0.2663  0.1245 -0.7182
  572SOL     OW 2290   1.571   3.113   1.088  0.1012  0.1435  0.2803
  572SOL    HW2 2291   1.648   3.156   1.127  0.3286  1.5808 -1.6783
  572SOL    HW3 2292   1.497   3.167   1.117 -0.1948 -1.1385  2.0192
  572SOL    MW4 2293   1.572   3.126   1.097  0.0921  0.1640  0.2513
  573SOL     OW 2294   1.344   3.259   1.171  0.5074  0.0447  0.3100
  573SOL    HW2 2295   1.336   3.264   1.266  0.4097  0.4272  0.2852
  573SOL    HW3 2296   1.267   3.211   1.143  1.7346 -2.1850  0.6113
  573SOL    MW4 2297   1.333   3.253   1.180  0.6564 -0.1990  0.3465
  574SOL     OW 2298   1.342   3.535   1.128 -0.1761 -0.3523  0.4934
  574SOL    HW2 2299   1.352   3.441   1.141 -0.7871 -0.3786  0.8138
  574SOL    HW3 2300   1.348   3.548   1.033  1.6163 -0.5000  0.5607
  574SOL    MW4 2301   1.344   3.524   1.117 -0.0202 -0.3753  0.5446
  575SOL     OW 2302   1.555   3.670   1.241 -0.1051 -0.0906  0.0065
  575SOL    HW2 2303   1.539   3.749   1.189 -0.0138 -0.3636 -0.4386
  575SOL    HW3 2304   1.489   3.607   1.211  0.7948 -0.6998 -0.7409
  575SOL    MW4 2305   1.544   3.672   1.230  0.0257 -0.2070 -0.1508
  576SOL     OW 2306   1.554   3.941   1.126  0.4266 -0.8500  0.4177
  576SOL    HW2 2307   1.473   3.987   1.148  0.6651 -0.3035  0.1296
  576SOL    HW3 2308   1.555   3.937   1.031  0.7200 -0.9047  0.4226
  576SOL    MW4 2309   1.543   3.946   1.117  0.4968 -0.7851  0.3803
  577SOL     OW 2310   1.330   4.058   1.244 -0.3073 -0.2907  0.2131
  577SOL    HW2 2311   1.325   4.136   1.188  1.0019  0.5118  1.1872
  577SOL    HW3 2312   1.262   4.000   1.210 -1.5486  1.4234 -0.3098
  577SOL    MW4 2313   1.321   4.061   1.232 -0.2983  0.0413  0.2726
  578SOL     OW 2314   1.345   4.275   1.090 -0.4459 -0.3325  0.4283
  578SOL    HW2 2315   1.272   4.328   1.120 -0.9127 -0.9729  0.4368
  578SOL    HW3 2316   1.354   4.297   0.997  0.2195  0.7461  0.7432
  578SOL    MW4 2317   1.337   4.285   1.081 -0.4197 -0.2747  0.4710
  579SOL     OW 2318   1.572   4.383   1.265 -0.0463 -0.2841  0.6190
  579SOL    HW2 2319   1.563   4.359   1.357 -1.9038 -0.4354  0.4197
  579SOL    HW3 2320   1.501   4.337   1.221  0.2730  0.4984 -0.7483
  579SOL    MW4 2321   1.562   4.374   1.271 -0.2492 -0.2008  0.4123
  580SOL     OW 2322   2.029   0.002   1.167  0.2384  0.1275  0.1682
  580SOL    HW2 2323   2.042  -0.086   1.203 -2.3124 -0.2735  0.2010
  580SOL    HW3 2324   2.039  -0.010   1.072 -0.2501 -0.2522  0.1588
  580SOL    MW4 2325   2.032  -0.011   1.159 -0.1626  0.0245  0.1713
  581SOL     OW 2326   1.781   0.100   1.267 -0.0434  0.2108  0.0495
  581SOL    HW2 2327   1.769   0.186   1.227  1.1213  1.2167  1.8056
  581SOL    HW3 2328   1.858   0.064   1.223  0.4479  0.7656  0.4436
  581SOL    MW4 2329   1.789   0.107   1.256  0.1751  0.4167  0.3332
  582SOL     OW 2330   1.777   0.351   1.169 -0.2951  0.2440  0.3582
  582SOL    HW2 2331   1.688   0.383   1.187  0.2632  2.3087 -0.4272
  582SOL    HW3 2332   1.793   0.375   1.078  1.3154  0.5169  0.6957
  582SOL    MW4 2333   1.767   0.359   1.159 -0.0089  0.5524  0.2991
  583SOL     OW 2334   1.985   0.525   1.187 -0.2940 -0.7775  0.1010
  583SOL    HW2 2335   1.995   0.528   1.282 -2.5121  0.7137  0.3430
  583SOL    HW3 2336   1.914   0.463   1.172 -0.5920 -0.3071 -0.4980
  583SOL    MW4 2337   1.977   0.518   1.197 -0.6260 -0.5187  0.0539
  584SOL     OW 2338   2.035   0.809   1.117 -0.6566 -0.3463 -0.1309
  584SOL    HW2 2339   2.014   0.716   1.126  0.1724 -0.6058 -0.7264
  584SOL    HW3 2340   2.024   0.826   1.023  1.0351 -0.3200 -0.3397
  584SOL    MW4 2341   2.031   0.799   1.106 -0.3240 -0.3770 -0.2370
  585SOL     OW 2342   1.809   0.935   1.208  0.1027  0.1076 -0.2064
  585SOL    HW2 2343   1.809   0.923   1.303 -0.1910 -0.9357 -0.3307
  585SOL    HW3 2344   1.890   0.893   1.179 -1.3655 -2.4104 -0.7449
  585SOL    MW4 2345   1.820   0.928   1.217 -0.1298 -0.3622 -0.2938
  586SOL     OW 2346   1.802   1.199   1.145  0.4026 -0.2747  0.2382
  586SOL    HW2 2347   1.783   1.109   1.170  2.9967 -0.9377  0.0016
  586SOL    HW3 2348   1.799   1.199   1.049 -0.4350  0.0972  0.2616
  586SOL    MW4 2349   1.799   1.187   1.136  0.6344 -0.3131  0.2101
  587SOL     OW 2350   2.054   1.303   1.208  0.5646 -0.4851  0.4062
  587SOL    HW2 2351   2.113   1.244   1.160  0.7628  1.2069 -1.4778
  587SOL    HW3 2352   1.966   1.270   1.189  0.7763 -1.7153  1.4788
  587SOL    MW4 2353   2.050   1.291   1.200  0.6187 -0.4241  0.2992
  588SOL     OW 2354   2.018   1.545   1.049  0.1762  0.2645  0.0931
  588SOL    HW2 2355   2.039   1.458   1.080  2.5305  0.2821 -1.3209
  588SOL    HW3 2356   2.012   1.536   0.954 -0.6818  1.4422  0.0108
  588SOL    MW4 2357   2.020   1.533   1.040  0.3736  0.4222 -0.1043
  589SOL     OW 2358   1.786   1.660   1.178  0.0125 -0.0122  0.9001
  589SOL    HW2 2359   1.786   1.754   1.164 -0.9256 -0.3047 -1.3500
  589SOL    HW3 2360   1.863   1.629   1.129 -0.0146 -0.4614  1.1430
  589SOL    MW4 2361   1.797   1.668   1.170 -0.1148 -0.1101  0.6353
  590SOL     OW 2362   1.787   1.922   1.105  0.1695 -0.1842 -0.2390
  590SOL    HW2 2363   1.712   1.971   1.139  1.4276  1.4504  0.2318
  590SOL    HW3 2364   1.777   1.927   1.010  0.0954  0.6998 -0.1888
  590SOL    MW4 2365   1.776   1.929   1.097  0.3257  0.1481 -0.1702
  591SOL     OW 2366   2.031   2.058   1.175 -0.4049  0.4152  0.1228
  591SOL    HW2 2367   2.021   2.063   1.270  0.0606 -2.1294  0.3655
  591SOL    HW3 2368   1.952   2.014   1.145 -0.5324  1.1822 -0.6758
  591SOL    MW4 2369   2.019   2.053   1.184 -0.3603  0.1806  0.0494
  592SOL     OW 2370   2.005   2.326   1.069 -0.1386  0.1745  0.5003
  592SOL    HW2 2371   2.083   2.375   1.095 -1.2392  1.3387  1.6911
  592SOL    HW3 2372   2.022   2.237   1.101  0.7843  0.3659  0.5813
  592SOL    MW4 2373   2.018   2.320   1.077 -0.1621  0.3534  0.6681
  593SOL     OW 2374   1.800   2.473   1.181 -0.1623 -0.3625  0.6622
  593SOL    HW2 2375   1.874   2.427   1.142  0.6875  1.7268 -0.2744
  593SOL    HW3 2376   1.727   2.411   1.174  0.8935 -1.4911 -0.7215
  593SOL    MW4 2377   1.800   2.458   1.174  0.0891 -0.2357  0.3561
  594SOL     OW 2378   1.779   2.726   1.078 -0.1544 -0.0060 -0.1592
  594SOL    HW2 2379   1.774   2.637   1.113  0.2921  0.1450  0.3003
  594SOL    HW3 2380   1.771   2.715   0.984  1.3017 -0.6690 -0.2214
  594SOL    MW4 2381   1.777   2.713   1.070  0.0966 -0.0736 -0.1068
  595SOL     OW 2382   2.011   2.840   1.199  0.0479  0.0786 -0.0860
  595SOL    HW2 2383   2.022   2.928   1.162  0.0075  0.0099 -0.2655
  595SOL    HW3 2384   1.931   2.807   1.158 -0.8373  0.5683  1.2059
  595SOL    MW4 2385   2.002   2.847   1.188 -0.0742  0.1341  0.0608
  596SOL     OW 2386   2.010   3.105   1.126  0.4211  0.4035  0.7175
  596SOL    HW2 2387   1.932   3.155   1.153  0.1574  0.0734  0.5652
  596SOL    HW3 2388   2.005   3.104   1.031 -0.5999 -1.5509  0.7684
  596SOL    MW4 2389   1.999   3.112   1.117  0.2516  0.1021  0.7041
  597SOL     OW 2390   1.784   3.233   1.208  0.0797  0.2817 -0.0308
  597SOL    HW2 2391   1.791   3.230   1.304  0.1056  0.8189 -0.0179
  597SOL    HW3 2392   1.782   3.326   1.187 -0.5116  0.1585 -0.5114
  597SOL    MW4 2393   1.785   3.245   1.218  0.0051  0.3363 -0.0925
  598SOL     OW 2394   1.808   3.509   1.171  0.1734 -0.7773 -0.1191
  598SOL    HW2 2395   1.894   3.550   1.181  0.6905 -1.5065 -1.4101
  598SOL    HW3 2396   1.745   3.577   1.197  0.9559  1.2186 -3.1470
  598SOL    MW4 2397   1.811   3.523   1.176  0.3449 -0.6102 -0.6889
  599SOL     OW 2398   2.047   3.664   1.211  0.4753  0.0804 -0.0142
  599SOL    HW2 2399   2.026   3.653   1.303 -0.1598 -2.0508 -0.3706
  599SOL    HW3 2400   2.118   3.601   1.195  0.3473  0.1895 -1.0505
  599SOL    MW4 2401   2.054   3.654   1.221  0.3746 -0.1864 -0.1979
  600SOL     OW 2402   1.985   3.896   1.048 -0.4546  0.1856 -0.0411
  600SOL    HW2 2403   1.924   3.942   1.105 -0.9109 -0.1268 -0.2697
  600SOL    HW3 2404   1.999   3.812   1.090  0.0217  0.3539  0.1419
  600SOL    MW4 2405   1.979   3.891   1.061 -0.4520  0.1666 -0.0471
  601SOL     OW 2406   1.793   4.042   1.197  0.0777  0.8038 -0.2132
  601SOL    HW2 2407   1.807   4.027   1.290  1.8885 -1.2692 -0.7802
  601SOL    HW3 2408   1.712   3.994   1.178  0.1580  0.5311  0.1240
  601SOL    MW4 2409   1.784   4.034   1.206  0.3272  0.4943 -0.2435
  602SOL     OW 2410   1.802   4.298   1.120 -0.3310  0.2632  0.4493
  602SOL    HW2 2411   1.804   4.206   1.147  0.4263 -0.1554 -0.9941
  602SOL    HW3 2412   1.728   4.335   1.168 -0.1243 -0.8864  1.7011
  602SOL    MW4 2413   1.792   4.290   1.130 -0.2038  0.0563  0.4240
  603SOL     OW 2414   2.042   4.384   1.243 -0.1798 -0.0250  0.1479
  603SOL    HW2 2415   2.022   4.393   1.336 -0.7046  0.8930 -0.0500
  603SOL    HW3 2416   1.958   4.361   1.202 -0.0987  0.2867 -0.1968
  603SOL    MW4 2417   2.028   4.382   1.250 -0.2383  0.1373  0.0763
  604SOL     OW 2418   2.469   0.048   1.071  0.0422  0.0464 -0.0693
  604SOL    HW2 2419   2.551   0.085   1.104 -0.3469  0.9577 -0.0838
  604SOL    HW3 2420   2.401   0.094   1.120 -0.4786 -0.1419 -0.6032
  604SOL    MW4 2421   2.471   0.059   1.082 -0.0778  0.1418 -0.1417
  605SOL     OW 2422   2.255   0.165   1.222  0.2481 -0.3471  0.4098
  605SOL    HW2 2423   2.236   0.252   1.187 -0.9634 -0.5850  0.4678
  605SOL    HW3 2424   2.176   0.114   1.204  0.3964 -1.0441  1.6649
  605SOL    MW4 2425   2.242   0.170   1.215  0.1079 -0.4705  0.5830
  606SOL     OW 2426   2.236   0.429   1.101 -0.4768 -0.0089  0.5870
  606SOL    HW2 2427   2.152   0.472   1.120  0.3998  1.2655  1.6638
  606SOL    HW3 2428   2.230   0.405   1.008 -1.6388  0.9718  0.3967
  606SOL    MW4 2429   2.224   0.431   1.091 -0.5144  0.2886  0.7039
  607SOL     OW 2430   2.483   0.504   1.202  0.4808 -0.1958 -0.0352
  607SOL    HW2 2431   2.479   0.521   1.297  1.1986 -0.7521  0.0979
  607SOL    HW3 2432   2.400   0.460   1.183  0.5336 -0.5114  0.4293
  607SOL    MW4 2433   2.471   0.500   1.212  0.5825 -0.3108  0.0436
  608SOL     OW 2434   2.489   0.766   1.150  0.4058 -0.0470  0.4459
  608SOL    HW2 2435   2.478   0.674   1.173  0.5304 -0.2237 -0.1835
  608SOL    HW3 2436   2.501   0.765   1.055 -0.3724  0.6885  0.3363
  608SOL    MW4 2437   2.489   0.754   1.140  0.3196  0.0267  0.3484
  609SOL     OW 2438   2.249   0.881   1.276 -0.2296 -0.6766 -0.0824
  609SOL    HW2 2439   2.331   0.863   1.231  0.8831 -1.9285  2.3533
  609SOL    HW3 2440   2.182   0.837   1.224  0.5920  0.5275 -2.2011
  609SOL    MW4 2441   2.251   0.873   1.263  0.0256 -0.6829 -0.0406
  610SOL     OW 2442   2.244   1.129   1.112  0.2994 -0.3040 -0.7210
  610SOL    HW2 2443   2.320   1.180   1.140  0.1317 -0.2668 -0.3273
  610SOL    HW3 2444   2.236   1.059   1.177 -0.4915  0.1731 -0.2890
  610SOL    MW4 2445   2.253   1.127   1.124  0.1729 -0.2362 -0.6120
  611SOL     OW 2446   2.452   1.282   1.186  0.1816 -0.0498 -0.3573
  611SOL    HW2 2447   2.536   1.239   1.170  0.6186 -0.1089  1.9186
  611SOL    HW3 2448   2.466   1.373   1.158  0.5440 -0.3882 -1.3016
  611SOL    MW4 2449   2.465   1.288   1.180  0.2871 -0.1022 -0.1816
  612SOL     OW 2450   2.468   1.548   1.107 -0.4948  0.0897 -0.1184
  612SOL    HW2 2451   2.399   1.607   1.139 -0.5463  0.4304 -0.8442
  612SOL    HW3 2452   2.472   1.565   1.013  0.6093  0.0911 -0.0769
  612SOL    MW4 2453   2.459   1.558   1.099 -0.3559  0.1348 -0.2086
  613SOL     OW 2454   2.218   1.654   1.204 -0.4366 -0.0102  0.7867
  613SOL    HW2 2455   2.219   1.742   1.165  0.8326 -0.0601  0.7017
  613SOL    HW3 2456   2.149   1.608   1.156 -1.5417  1.1310  1.2569
  613SOL    MW4 2457   2.209   1.660   1.192 -0.4149  0.1338  0.8375
  614SOL     OW 2458   2.242   1.901   1.086 -0.1898 -0.3684 -0.0803
  614SOL    HW2 2459   2.165   1.953   1.105  0.5483  0.1503  1.6240
  614SOL    HW3 2460   2.246   1.896   0.991 -1.7842  0.3923 -0.1913
  614SOL    MW4 2461   2.232   1.907   1.076 -0.3028 -0.1996  0.1299
  615SOL     OW 2462   2.469   2.030   1.196 -0.5387  0.0237 -0.0505
  615SOL    HW2 2463   2.551   1.990   1.168 -0.3768 -2.8476  4.1213
  615SOL    HW3 2464   2.401   1.986   1.145  0.2752  0.7390 -1.7935
  615SOL    MW4 2465   2.470   2.019   1.186 -0.4100 -0.2608  0.2699
  616SOL     OW 2466   2.503   2.309   1.130 -0.4664  0.0119 -0.0978
  616SOL    HW2 2467   2.487   2.217   1.149 -2.6325  0.4551  0.3109
  616SOL    HW3 2468   2.503   2.314   1.034  0.8093 -0.5953 -0.1345
  616SOL    MW4 2469   2.501   2.298   1.120 -0.5839 -0.0097 -0.0487
  617SOL     OW 2470   2.233   2.454   1.207 -0.0520 -0.3919 -0.5636
  617SOL    HW2 2471   2.237   2.459   1.303  0.8331 -0.0957 -0.6096
  617SOL    HW3 2472   2.321   2.426   1.181 -0.2203 -0.2395 -1.2998
  617SOL    MW4 2473   2.245   2.451   1.217  0.0426 -0.3327 -0.6668
  618SOL     OW 2474   2.259   2.722   1.113  0.0087 -0.0263  0.3561
  618SOL    HW2 2475   2.254   2.632   1.146 -1.9202 -0.2661 -0.5205
  618SOL    HW3 2476   2.176   2.761   1.138  0.8786  1.5611  0.8174
  618SOL    MW4 2477   2.247   2.715   1.121 -0.1310  0.1515  0.3013
  619SOL     OW 2478   2.474   2.877   1.201  0.0446  0.0767  0.1001
  619SOL    HW2 2479   2.476   2.865   1.296  1.4241 -1.3024 -0.0779
  619SOL    HW3 2480   2.404   2.820   1.170  0.2318 -0.2100  0.2034
  619SOL    MW4 2481   2.465   2.868   1.209  0.2513 -0.1431  0.0903
  620SOL     OW 2482   2.459   3.118   1.072  0.3484 -0.4566  0.2244
  620SOL    HW2 2483   2.389   3.166   1.116  0.2684 -0.8849  0.5672
  620SOL    HW3 2484   2.463   3.034   1.118  0.7650 -0.6176 -0.1046
  620SOL    MW4 2485   2.450   3.113   1.084  0.3928 -0.5343  0.2262
  621SOL     OW 2486   2.248   3.214   1.209 -0.1275  0.3515  0.0521
  621SOL    HW2 2487   2.247   3.305   1.177 -0.6939  0.6198  0.8220
  621SOL    HW3 2488   2.170   3.174   1.171  1.6214 -0.6614 -2.6503
  621SOL    MW4 2489   2.238   3.221   1.200  0.0285  0.2532 -0.2029
  622SOL     OW 2490   2.244   3.491   1.120 -0.5952 -0.0073  0.1209
  622SOL    HW2 2491   2.328   3.539   1.116 -1.1416  1.0154  0.6990
  622SOL    HW3 2492   2.211   3.494   1.030 -0.7342  0.9063  0.1984
  622SOL    MW4 2493   2.251   3.498   1.107 -0.6856  0.2482  0.2074
  623SOL     OW 2494   2.501   3.605   1.219  0.3062  0.0137  0.0017
  623SOL    HW2 2495   2.475   3.596   1.311  0.0726  1.3836  0.0932
  623SOL    HW3 2496   2.512   3.700   1.207 -0.3448 -0.0928 -1.5588
  623SOL    MW4 2497   2.499   3.617   1.230  0.1894  0.1804 -0.1921
  624SOL     OW 2498   2.481   3.878   1.143  0.0361  0.1158 -0.2835
  624SOL    HW2 2499   2.398   3.920   1.163  0.6468  1.2163 -0.0591
  624SOL    HW3 2500   2.486   3.878   1.047 -0.2372  0.0043 -0.2991
  624SOL    MW4 2501   2.471   3.883   1.133  0.0806  0.2463 -0.2560
  625SOL     OW 2502   2.236   4.027   1.181 -0.2598  0.4252  0.7954
  625SOL    HW2 2503   2.241   4.122   1.171 -0.8374  0.4106  0.3718
  625SOL    HW3 2504   2.158   4.001   1.132  0.1362 -0.3187  0.5472
  625SOL    MW4 2505   2.227   4.036   1.173 -0.2838  0.3251  0.7068
  626SOL     OW 2506   2.278   4.295   1.131 -0.6146 -0.6083  0.4834
  626SOL    HW2 2507   2.195   4.329   1.166  0.3866  1.2168  1.1473
  626SOL    HW3 2508   2.264   4.290   1.037 -1.0399  1.0106  0.4429
  626SOL    MW4 2509   2.265   4.299   1.123 -0.5386 -0.1539  0.5656
  627SOL     OW 2510   2.472   4.464   1.210  0.2126  0.3670  0.5917
  627SOL    HW2 2511   2.389   4.429   1.180  0.6114  0.1585 -0.2611
  627SOL    HW3 2512   2.480   4.549   1.167 -0.2572  1.0583  1.8365
  627SOL    MW4 2513   2.462   4.471   1.201  0.2032  0.4307  0.6434
  628SOL     OW 2514   2.910   4.631   1.124 -0.5832  0.1691 -0.4576
  628SOL    HW2 2515   2.918   4.536   1.130  0.5394  0.3216  0.7080
  628SOL    HW3 2516   2.935   4.652   1.034  1.5817 -0.4316 -0.0241
  628SOL    MW4 2517   2.915   4.621   1.113 -0.1495  0.1100 -0.2466
  629SOL     OW 2518   2.684   0.122   1.216 -0.2480  0.2735  0.0823
  629SOL    HW2 2519   2.684   0.110   1.311 -0.6651 -1.7945 -0.1583
  629SOL    HW3 2520   2.750   0.061   1.184 -0.5423  0.5139 -1.0040
  629SOL    MW4 2521   2.693   0.112   1.225 -0.3419  0.0323 -0.0927
  630SOL     OW 2522   2.728   0.384   1.089  0.3949  0.3668  0.2976
  630SOL    HW2 2523   2.719   0.298   1.131 -1.7986  0.7841  0.7511
  630SOL    HW3 2524   2.659   0.437   1.128  0.2069  1.6383 -1.6964
  630SOL    MW4 2525   2.718   0.379   1.099  0.0807  0.5896  0.0943
  631SOL     OW 2526   2.949   0.504   1.209  0.2526  0.4229  0.0225
  631SOL    HW2 2527   2.935   0.593   1.176  0.3214  0.0577 -1.0142
  631SOL    HW3 2528   2.874   0.454   1.177  0.1621  0.1275  0.6844
  631SOL    MW4 2529   2.937   0.509   1.200  0.2498  0.3357 -0.0269
  632SOL     OW 2530   2.908   0.767   1.122  0.3400 -0.2666  0.7529
  632SOL    HW2 2531   2.999   0.796   1.125  0.2177  0.1508  0.4522
  632SOL    HW3 2532   2.866   0.815   1.194  0.4161 -0.6678  1.0677
  632SOL    MW4 2533   2.914   0.777   1.132  0.3339 -0.2644  0.7548
  633SOL     OW 2534   2.685   0.902   1.277  0.5642  0.0484  0.0183
  633SOL    HW2 2535   2.686   0.984   1.229 -1.2933  0.3506  0.4629
  633SOL    HW3 2536   2.618   0.849   1.234  0.2018 -0.3861  1.0853
  633SOL    MW4 2537   2.676   0.906   1.265  0.2713  0.0310  0.2177
  634SOL     OW 2538   2.697   1.163   1.142  0.1813 -0.5772 -0.3186
  634SOL    HW2 2539   2.775   1.199   1.185 -0.5942  0.8752 -0.1064
  634SOL    HW3 2540   2.710   1.181   1.049 -0.8922  1.6139 -0.0622
  634SOL    MW4 2541   2.709   1.170   1.135 -0.0627 -0.0965 -0.2567
  635SOL     OW 2542   2.949   1.256   1.214  0.0788 -0.5168  0.2711
  635SOL    HW2 2543   2.957   1.267   1.309  0.9430  1.9651 -0.0611
  635SOL    HW3 2544   2.919   1.341   1.182  1.9186 -0.6411 -1.9077
  635SOL    MW4 2545   2.946   1.268   1.222  0.4356 -0.2058 -0.0602
  636SOL     OW 2546   2.928   1.532   1.162  0.1158 -0.0207 -0.2126
  636SOL    HW2 2547   3.017   1.561   1.183  0.0914 -0.4622  0.4751
  636SOL    HW3 2548   2.923   1.541   1.066  1.1137 -0.5984 -0.3324
  636SOL    MW4 2549   2.939   1.537   1.152  0.2442 -0.1552 -0.1377
  637SOL     OW 2550   2.702   1.674   1.237  0.4961  0.1813 -0.8388
  637SOL    HW2 2551   2.777   1.625   1.203  0.3393 -0.2898 -0.5224
  637SOL    HW3 2552   2.627   1.638   1.190  0.2128 -0.8501  0.3761
  637SOL    MW4 2553   2.702   1.663   1.227  0.4380 -0.0169 -0.6368
  638SOL     OW 2554   2.710   1.912   1.112 -0.4191  0.1645 -0.7145
  638SOL    HW2 2555   2.792   1.957   1.132 -1.8726  2.1366  1.1233
  638SOL    HW3 2556   2.709   1.837   1.171  0.1177  0.0862 -0.8030
  638SOL    MW4 2557   2.721   1.908   1.123 -0.5401  0.4143 -0.4837
  639SOL     OW 2558   2.917   2.063   1.201  0.0460 -0.0429 -0.0040
  639SOL    HW2 2559   2.915   2.051   1.296 -1.3547 -0.3078 -0.0536
  639SOL    HW3 2560   2.928   2.157   1.189  0.7416 -0.0632  0.4099
  639SOL    MW4 2561   2.918   2.074   1.212 -0.0470 -0.0805  0.0441
  640SOL     OW 2562   2.965   2.334   1.114  0.5404  0.6456 -0.1602
  640SOL    HW2 2563   3.046   2.376   1.144  0.4199  2.1499 -1.9004
  640SOL    HW3 2564   2.896   2.384   1.156  0.4493  1.0086 -0.7388
  640SOL    MW4 2565   2.967   2.346   1.124  0.5125  0.8920 -0.4661
  641SOL     OW 2566   2.733   2.446   1.214 -0.2627 -0.0811  0.1106
  641SOL    HW2 2567   2.724   2.446   1.310  1.0877 -0.5014  0.2518
  641SOL    HW3 2568   2.659   2.393   1.183 -0.8494  0.2645  0.9065
  641SOL    MW4 2569   2.722   2.439   1.223 -0.1619 -0.0910  0.2343
  642SOL     OW 2570   2.687   2.707   1.107 -0.3702  0.0481 -0.0340
  642SOL    HW2 2571   2.692   2.620   1.146 -1.7469 -1.2926 -2.7046
  642SOL    HW3 2572   2.616   2.750   1.156 -0.0075 -0.4813  0.9824
  642SOL    MW4 2573   2.678   2.701   1.119 -0.5039 -0.1987 -0.2523
  643SOL     OW 2574   2.909   2.845   1.181 -0.0924 -0.1248  0.3400
  643SOL    HW2 2575   2.908   2.838   1.277 -0.6141 -0.2105  0.3272
  643SOL    HW3 2576   2.820   2.824   1.154  0.1476 -0.4770 -0.1934
  643SOL    MW4 2577   2.897   2.841   1.190 -0.1296 -0.1826  0.2679
  644SOL     OW 2578   2.914   3.100   1.067  0.7611  0.3246  0.2286
  644SOL    HW2 2579   2.925   3.010   1.099  0.6494  0.3674  0.3827
  644SOL    HW3 2580   2.886   3.089   0.976 -0.4025  0.1955  0.6030
  644SOL    MW4 2581   2.912   3.087   1.059  0.5928  0.3132  0.2984
  645SOL     OW 2582   2.690   3.190   1.205  0.1291 -0.8684  0.3318
  645SOL    HW2 2583   2.761   3.159   1.149  0.3177 -2.4476  1.4231
  645SOL    HW3 2584   2.610   3.167   1.157  0.3026 -0.9601  0.0834
  645SOL    MW4 2585   2.689   3.183   1.191  0.1768 -1.0888  0.4430
  646SOL     OW 2586   2.709   3.469   1.121 -0.3931  0.0980 -0.1852
  646SOL    HW2 2587   2.692   3.378   1.146  0.1171 -0.2645 -1.1517
  646SOL    HW3 2588   2.631   3.516   1.151 -0.0408 -0.4095  1.6067
  646SOL    MW4 2589   2.696   3.463   1.128 -0.2793 -0.0168 -0.0763
  647SOL     OW 2590   2.904   3.637   1.199 -0.2451  0.2722  0.3911
  647SOL    HW2 2591   2.985   3.586   1.183  0.2042  1.1508 -0.1692
  647SOL    HW3 2592   2.835   3.584   1.159  0.3843  0.6520 -1.2333
  647SOL    MW4 2593   2.906   3.623   1.191 -0.1027  0.4382  0.1029
  648SOL     OW 2594   2.924   3.896   1.117  0.0443 -0.1560  0.4217
  648SOL    HW2 2595   3.003   3.933   1.156 -0.1896  0.3201  0.4446
  648SOL    HW3 2596   2.929   3.802   1.138  1.4825 -0.4423 -1.0697
  648SOL    MW4 2597   2.935   3.888   1.125  0.2032 -0.1310  0.2279
  649SOL     OW 2598   2.696   4.033   1.182  0.0264  0.6311 -0.2275
  649SOL    HW2 2599   2.768   3.973   1.161  0.5512  0.4845  1.8297
  649SOL    HW3 2600   2.617   3.979   1.177  0.3394  0.1381  0.0804
  649SOL    MW4 2601   2.695   4.018   1.179  0.1369  0.5467  0.0846
  650SOL     OW 2602   2.682   4.280   1.068 -0.1239  0.0356 -0.1906
  650SOL    HW2 2603   2.666   4.193   1.104  0.4331 -0.1016 -0.2564
  650SOL    HW3 2604   2.611   4.334   1.102 -0.5377 -0.4754 -0.2525
  650SOL    MW4 2605   2.671   4.276   1.078 -0.1050 -0.0499 -0.2074
  651SOL     OW 2606   2.920   4.362   1.213 -0.4827 -0.5925 -0.5176
  651SOL    HW2 2607   2.996   4.316   1.176  0.2826 -0.0136  0.3215
  651SOL    HW3 2608   2.845   4.327   1.164  0.3733 -0.7781 -1.7278
  651SOL    MW4 2609   2.920   4.351   1.202 -0.2688 -0.5406 -0.5666
  652SOL     OW 2610   3.359   0.022   1.124 -0.7619 -0.4829 -0.0925
  652SOL    HW2 2611   3.437   0.068   1.155 -1.1263  0.4114 -0.4669
  652SOL    HW3 2612   3.290   0.051   1.183 -1.0058 -0.5158 -0.3617
  652SOL    MW4 2613   3.360   0.032   1.136 -0.8422 -0.3692 -0.1774
  653SOL     OW 2614   3.126   0.106   1.261  0.3550 -0.1708  0.4690
  653SOL    HW2 2615   3.112   0.107   1.355 -1.6340  0.6439  0.1919
  653SOL    HW3 2616   3.053   0.054   1.227 -0.1871  1.3891 -0.8009
  653SOL    MW4 2617   3.114   0.099   1.269  0.0210  0.1425  0.2649
  654SOL     OW 2618   3.178   0.354   1.153 -0.2366 -0.0471 -0.1628
  654SOL    HW2 2619   3.171   0.263   1.181 -0.9189 -0.3232 -1.2100
  654SOL    HW3 2620   3.094   0.393   1.177 -0.4403 -0.0278 -0.9044
  654SOL    MW4 2621   3.166   0.347   1.160 -0.3535 -0.0810 -0.3988
  655SOL     OW 2622   3.393   0.519   1.221 -0.2594 -0.4164  0.2659
  655SOL    HW2 2623   3.393   0.601   1.172 -1.1887 -0.8489 -0.4889
  655SOL    HW3 2624   3.319   0.470   1.185  0.3337 -1.6180  0.6456
  655SOL    MW4 2625   3.383   0.523   1.210 -0.3038 -0.6320  0.2164
  656SOL     OW 2626   3.410   0.763   1.075  0.0252 -0.3449  0.0655
  656SOL    HW2 2627   3.330   0.807   1.104 -1.8387 -3.1608 -0.5807
  656SOL    HW3 2628   3.400   0.755   0.980  0.2535 -2.2300  0.1830
  656SOL    MW4 2629   3.398   0.768   1.066 -0.1906 -0.9652 -0.0042
  657SOL     OW 2630   3.165   0.882   1.162  0.4258  0.2315 -0.3718
  657SOL    HW2 2631   3.179   0.889   1.257 -0.5131  0.6370 -0.2575
  657SOL    HW3 2632   3.166   0.973   1.132  0.6354  0.1069 -0.7478
  657SOL    MW4 2633   3.167   0.895   1.171  0.3296  0.2686 -0.4063
  658SOL     OW 2634   3.187   1.145   1.097  0.2291  0.1064  0.3351
  658SOL    HW2 2635   3.267   1.179   1.137  0.0967  0.4920  0.2803
  658SOL    HW3 2636   3.116   1.186   1.147  0.0648 -0.1434  0.3095
  658SOL    MW4 2637   3.188   1.155   1.109  0.1900  0.1243  0.3245
  659SOL     OW 2638   3.407   1.241   1.236 -0.1126 -0.8103  0.6225
  659SOL    HW2 2639   3.404   1.252   1.331 -0.9186 -0.1562  0.5201
  659SOL    HW3 2640   3.402   1.330   1.201 -0.3431 -1.0858 -0.0543
  659SOL    MW4 2641   3.406   1.254   1.244 -0.2493 -0.7604  0.5197
  660SOL     OW 2642   3.398   1.479   1.112  0.1713 -0.1517 -0.6269
  660SOL    HW2 2643   3.464   1.521   1.168 -0.8833  1.2314 -0.3590
  660SOL    HW3 2644   3.316   1.524   1.135 -0.7060 -1.2267 -1.5741
  660SOL    MW4 2645   3.396   1.491   1.123 -0.0836 -0.1111 -0.7165
  661SOL     OW 2646   3.174   1.626   1.217  0.2979 -0.1549 -0.1917
  661SOL    HW2 2647   3.170   1.636   1.313 -0.8134 -0.6840 -0.1763
  661SOL    HW3 2648   3.168   1.716   1.184 -1.6726 -0.1237  0.1848
  661SOL    MW4 2649   3.173   1.639   1.226 -0.1088 -0.2206 -0.1400
  662SOL     OW 2650   3.148   1.887   1.154  0.0614  0.1978 -0.6146
  662SOL    HW2 2651   3.221   1.934   1.193  0.1312 -0.3044 -0.1369
  662SOL    HW3 2652   3.071   1.939   1.178 -0.0847 -1.0171  1.6629
  662SOL    MW4 2653   3.147   1.900   1.162  0.0514 -0.0288 -0.2511
  663SOL     OW 2654   3.368   2.029   1.223  0.4681 -0.1302 -0.7309
  663SOL    HW2 2655   3.453   1.991   1.200  0.8155  0.3186 -0.2005
  663SOL    HW3 2656   3.373   2.120   1.193  0.3988  0.0658 -0.1578
  663SOL    MW4 2657   3.380   2.036   1.216  0.5048 -0.0452 -0.5853
  664SOL     OW 2658   3.403   2.291   1.119 -0.1504  0.1867  0.1239
  664SOL    HW2 2659   3.479   2.347   1.137 -1.0055  1.1536  0.7905
  664SOL    HW3 2660   3.328   2.341   1.152 -1.2357 -0.1532 -1.7899
  664SOL    MW4 2661   3.403   2.305   1.126 -0.4064  0.2695 -0.0407
  665SOL     OW 2662   3.199   2.439   1.242  0.2424  0.1303  0.0356
  665SOL    HW2 2663   3.158   2.427   1.328 -0.2126 -2.6867 -0.5555
  665SOL    HW3 2664   3.160   2.520   1.209 -1.2807  0.0215  1.4972
  665SOL    MW4 2665   3.189   2.448   1.249 -0.0186 -0.2557  0.1504
  666SOL     OW 2666   3.085   2.650   1.086 -0.3342  0.0178 -0.2284
  666SOL    HW2 2667   3.011   2.698   1.122  0.1565  0.5714  0.0589
  666SOL    HW3 2668   3.080   2.664   0.992 -0.4284  0.2862 -0.1817
  666SOL    MW4 2669   3.075   2.658   1.079 -0.2819  0.1263 -0.1843
  667SOL     OW 2670   3.312   2.799   1.223  0.4716 -0.3065 -0.4348
  667SOL    HW2 2671   3.309   2.885   1.180 -0.3215 -0.1243 -0.0247
  667SOL    HW3 2672   3.240   2.750   1.182  0.5949 -0.5945 -0.3006
  667SOL    MW4 2673   3.302   2.804   1.212  0.3832 -0.3204 -0.3630
  668SOL     OW 2674   3.324   3.052   1.121  0.2841 -0.1913  0.4397
  668SOL    HW2 2675   3.408   3.086   1.150 -0.1446  0.0921  1.3878
  668SOL    HW3 2676   3.259   3.101   1.172 -0.4585 -0.3881 -0.2896
  668SOL    MW4 2677   3.326   3.063   1.132  0.1295 -0.1798  0.4685
  669SOL     OW 2678   3.125   3.216   1.213 -0.1141 -0.3494 -0.2230
  669SOL    HW2 2679   3.138   3.310   1.197 -1.1557  0.1113  1.5009
  669SOL    HW3 2680   3.049   3.193   1.159 -0.2515 -0.0579 -0.1546
  669SOL    MW4 2681   3.116   3.226   1.204 -0.2696 -0.2501  0.0135
  670SOL     OW 2682   3.153   3.484   1.147  0.0084  0.2730 -0.2515
  670SOL    HW2 2683   3.227   3.541   1.167  0.6803 -0.6007 -0.1579
  670SOL    HW3 2684   3.160   3.468   1.053 -1.3368  1.9105 -0.6484
  670SOL    MW4 2685   3.164   3.489   1.137 -0.0805  0.3738 -0.2915
  671SOL     OW 2686   3.368   3.629   1.213 -0.4950 -0.3052  0.2348
  671SOL    HW2 2687   3.375   3.622   1.308 -0.2610 -1.8303  0.1283
  671SOL    HW3 2688   3.441   3.577   1.180 -0.9202 -0.2727 -0.7813
  671SOL    MW4 2689   3.379   3.621   1.221 -0.5202 -0.5021  0.0867
  672SOL     OW 2690   3.425   3.895   1.135 -0.1308 -0.3850 -0.2004
  672SOL    HW2 2691   3.357   3.953   1.169 -0.4158 -0.7613 -0.1160
  672SOL    HW3 2692   3.397   3.807   1.163  1.1971 -0.3925  1.2211
  672SOL    MW4 2693   3.413   3.891   1.143  0.0068 -0.4357 -0.0017
  673SOL     OW 2694   3.167   4.011   1.220 -0.4818 -0.0238  0.1531
  673SOL    HW2 2695   3.167   4.023   1.315  1.3493  0.8200  0.0683
  673SOL    HW3 2696   3.148   4.098   1.185 -0.8808 -0.2763 -0.2719
  673SOL    MW4 2697   3.164   4.024   1.228 -0.2928  0.0543  0.0858
  674SOL     OW 2698   3.166   4.271   1.123  0.8594  0.1908 -0.0207
  674SOL    HW2 2699   3.228   4.335   1.158 -0.4718  1.2169  0.4916
  674SOL    HW3 2700   3.189   4.264   1.030  2.2156 -0.0204  0.3110
  674SOL    MW4 2701   3.177   4.278   1.115  0.8627  0.2983  0.0906
  675SOL     OW 2702   3.341   4.430   1.250 -0.0054  0.1329 -0.2640
  675SOL    HW2 2703   3.429   4.395   1.237  0.0658  0.3585 -0.3846
  675SOL    HW3 2704   3.345   4.519   1.215  0.3554  0.9626  1.8385
  675SOL    MW4 2705   3.353   4.437   1.243  0.0516  0.2721 -0.0025
  676SOL     OW 2706   3.861   0.012   1.128 -0.1126  0.4369 -0.5737
  676SOL    HW2 2707   3.856  -0.078   1.160  1.1884  0.3188 -0.6705
  676SOL    HW3 2708   3.860   0.004   1.032 -1.3079  0.6142 -0.5795
  676SOL    MW4 2709   3.860  -0.001   1.119 -0.0986  0.4447 -0.5873
  677SOL     OW 2710   3.603   0.105   1.207  0.2204  0.2324  0.8676
  677SOL    HW2 2711   3.615   0.198   1.186  0.7039  0.0187  0.1964
  677SOL    HW3 2712   3.683   0.063   1.175  0.7111 -0.1846  2.6203
  677SOL    MW4 2713   3.615   0.112   1.200  0.3489  0.1492  1.0103
  678SOL     OW 2714   3.604   0.375   1.133  0.3629 -0.1451 -0.1926
  678SOL    HW2 2715   3.677   0.423   1.172  0.7035 -0.0030 -0.9942
  678SOL    HW3 2716   3.526   0.421   1.163  0.5765 -0.5425  1.0036
  678SOL    MW4 2717   3.603   0.387   1.142  0.4361 -0.1788 -0.1405
  679SOL     OW 2718   3.823   0.489   1.267 -0.0808  0.2880  0.1823
  679SOL    HW2 2719   3.913   0.458   1.259  0.4134  1.4682  0.8806
  679SOL    HW3 2720   3.823   0.574   1.222 -0.2903  1.2742  1.9583
  679SOL    MW4 2721   3.835   0.496   1.260 -0.0432  0.5738  0.5088
  680SOL     OW 2722   3.842   0.721   1.137  0.3704  0.2013  0.0116
  680SOL    HW2 2723   3.914   0.763   1.184 -0.6204  0.9247  0.8858
  680SOL    HW3 2724   3.763   0.765   1.168 -0.3686  0.2189 -1.8090
  680SOL    MW4 2725   3.841   0.732   1.147  0.1422  0.2991 -0.1132
  681SOL     OW 2726   3.624   0.871   1.195 -0.6988 -0.1529  0.5836
  681SOL    HW2 2727   3.628   0.948   1.140  1.3842 -0.6951 -0.0626
  681SOL    HW3 2728   3.547   0.823   1.165 -0.9485  0.7637 -0.2248
  681SOL    MW4 2729   3.615   0.875   1.184 -0.4569 -0.1035  0.3917
  682SOL     OW 2730   3.626   1.113   1.074 -0.3275 -0.1418 -0.0709
  682SOL    HW2 2731   3.703   1.166   1.094  0.2055  0.6369 -3.9364
  682SOL    HW3 2732   3.557   1.151   1.127  1.4179  0.5315  1.8025
  682SOL    MW4 2733   3.627   1.125   1.084 -0.0269  0.0498 -0.3337
  683SOL     OW 2734   3.816   1.292   1.185 -0.2110  0.0418 -0.1422
  683SOL    HW2 2735   3.787   1.288   1.277  1.8789 -0.1916  0.5216
  683SOL    HW3 2736   3.824   1.385   1.167  0.3470  0.0638  0.2184
  683SOL    MW4 2737   3.813   1.304   1.195  0.1384  0.0139 -0.0070
  684SOL     OW 2738   3.829   1.578   1.117  0.6347 -0.3427 -0.6180
  684SOL    HW2 2739   3.898   1.634   1.151  0.8963 -0.5656 -0.7792
  684SOL    HW3 2740   3.853   1.563   1.025 -0.2653  0.5748 -1.0103
  684SOL    MW4 2741   3.841   1.583   1.109  0.5504 -0.2511 -0.6910
  685SOL     OW 2742   3.584   1.617   1.261 -0.4570 -0.3252 -0.2777
  685SOL    HW2 2743   3.552   1.704   1.240 -1.1613 -0.5681 -0.2172
  685SOL    HW3 2744   3.662   1.606   1.207 -0.9374 -0.0484 -1.0261
  685SOL    MW4 2745   3.590   1.627   1.251 -0.6133 -0.3207 -0.3685
  686SOL     OW 2746   3.592   1.879   1.168  0.3308 -0.3304  0.7213
  686SOL    HW2 2747   3.675   1.903   1.209  0.8244  0.1265 -0.5208
  686SOL    HW3 2748   3.610   1.883   1.074 -1.5457  1.4066  0.4077
  686SOL    MW4 2749   3.606   1.883   1.161  0.1483 -0.0409  0.5161
  687SOL     OW 2750   3.816   2.016   1.253 -0.7967 -0.5192  0.2820
  687SOL    HW2 2751   3.833   2.029   1.346  0.1311  1.7925 -0.1934
  687SOL    HW3 2752   3.898   1.982   1.218 -0.6865 -0.0009  0.0370
  687SOL    MW4 2753   3.829   2.013   1.261 -0.6598 -0.1458  0.1869
  688SOL     OW 2754   3.811   2.281   1.170 -0.4726 -0.0433 -0.1838
  688SOL    HW2 2755   3.894   2.318   1.200 -1.0747  1.2375 -0.1017
  688SOL    HW3 2756   3.807   2.194   1.210  0.2295  0.3924  0.8256
  688SOL    MW4 2757   3.822   2.274   1.179 -0.4594  0.1831 -0.0398
  689SOL     OW 2758   3.609   2.462   1.210  0.1599  0.3249  0.0961
  689SOL    HW2 2759   3.588   2.462   1.303  0.3522  0.5494  0.1398
  689SOL    HW3 2760   3.683   2.402   1.202 -0.4385 -0.3926 -0.0445
  689SOL    MW4 2761   3.616   2.454   1.221  0.1063  0.2599  0.0833
  690SOL     OW 2762   3.587   2.728   1.100  0.1167 -0.2666 -0.0789
  690SOL    HW2 2763   3.610   2.646   1.146  0.0062 -0.0780  0.3179
  690SOL    HW3 2764   3.501   2.751   1.134  0.0446 -0.1086 -0.3689
  690SOL    MW4 2765   3.579   2.720   1.111  0.0926 -0.2209 -0.0648
  691SOL     OW 2766   3.816   2.832   1.187  0.1175  0.0417 -0.2615
  691SOL    HW2 2767   3.796   2.848   1.279  0.2977 -1.7715  0.1091
  691SOL    HW3 2768   3.739   2.786   1.153  0.5452 -0.3441 -0.7169
  691SOL    MW4 2769   3.803   2.828   1.195  0.1977 -0.2484 -0.2727
  692SOL     OW 2770   3.843   3.082   1.082 -0.4417  0.0886 -0.2036
  692SOL    HW2 2771   3.835   2.989   1.103 -0.9058  0.0722 -0.4523
  692SOL    HW3 2772   3.855   3.084   0.987  1.4978  0.1723  0.0273
  692SOL    MW4 2773   3.843   3.070   1.072 -0.2470  0.0975 -0.2059
  693SOL     OW 2774   3.584   3.179   1.150 -0.1354 -0.3614  0.6746
  693SOL    HW2 2775   3.587   3.274   1.163 -0.7666 -0.4005  1.1615
  693SOL    HW3 2776   3.670   3.156   1.116 -0.4044  0.5621 -0.6597
  693SOL    MW4 2777   3.596   3.188   1.147 -0.2542 -0.2447  0.5628
  694SOL     OW 2778   3.577   3.452   1.137  0.1938  0.0546 -0.1061
  694SOL    HW2 2779   3.652   3.490   1.183 -0.9074 -0.2638  1.9835
  694SOL    HW3 2780   3.597   3.465   1.044  2.5889  0.4458  0.4347
  694SOL    MW4 2781   3.590   3.458   1.131  0.3645  0.0642  0.2409
  695SOL     OW 2782   3.819   3.605   1.234 -0.0879  0.1804 -0.3690
  695SOL    HW2 2783   3.830   3.621   1.327  1.4514 -0.6749 -0.3838
  695SOL    HW3 2784   3.831   3.691   1.193  1.1019  0.2345  0.0809
  695SOL    MW4 2785   3.822   3.618   1.241  0.2722  0.0747 -0.3116
  696SOL     OW 2786   3.844   3.871   1.147  0.2055  0.2759 -0.1131
  696SOL    HW2 2787   3.782   3.935   1.180  1.0359  0.8074  0.4512
  696SOL    HW3 2788   3.829   3.868   1.052 -2.2539 -1.3182  0.2804
  696SOL    MW4 2789   3.834   3.879   1.139 -0.0094  0.1357  0.0133
  697SOL     OW 2790   3.646   4.053   1.248  0.5224 -0.2101  0.3694
  697SOL    HW2 2791   3.660   4.043   1.343 -0.1811 -0.5151  0.4420
  697SOL    HW3 2792   3.567   4.003   1.230 -0.1813  1.0647 -0.1335
  697SOL    MW4 2793   3.638   4.045   1.258  0.3367 -0.0822  0.3126
  698SOL     OW 2794   3.577   4.320   1.160  0.0250 -0.3298 -0.0217
  698SOL    HW2 2795   3.614   4.235   1.185  1.2354 -0.0721 -0.8387
  698SOL    HW3 2796   3.586   4.322   1.064  0.8759  1.0902  0.0694
  698SOL    MW4 2797   3.583   4.309   1.151  0.2969 -0.1084 -0.1175
  699SOL     OW 2798   3.834   4.436   1.217 -0.2313 -0.0194  0.1690
  699SOL    HW2 2799   3.845   4.424   1.311 -0.5206 -1.0163  0.0792
  699SOL    HW3 2800   3.749   4.397   1.198 -0.0073 -0.1471 -0.5710
  699SOL    MW4 2801   3.824   4.429   1.227 -0.2399 -0.1677  0.0595
  700SOL     OW 2802   4.285   4.602   1.118 -0.0037  0.2734 -0.0222
  700SOL    HW2 2803   4.291   4.519   1.165  0.3942  0.2398 -0.1362
  700SOL    HW3 2804   4.206   4.644   1.154 -1.3337 -1.0177 -1.3413
  700SOL    MW4 2805   4.275   4.597   1.129 -0.1267  0.0986 -0.2113
  701SOL     OW 2806   4.094   0.094   1.228  0.0925 -0.2287  0.4822
  701SOL    HW2 2807   4.084   0.084   1.323  0.0453 -0.5229  0.4454
  701SOL    HW3 2808   4.006   0.079   1.193 -0.0397  0.5976  0.4538
  701SOL    MW4 2809   4.081   0.091   1.236  0.0689 -0.1585  0.4736
  702SOL     OW 2810   4.052   0.356   1.190  0.0013  0.3641  0.2046
  702SOL    HW2 2811   4.063   0.264   1.215  1.1065  0.5753  0.4887
  702SOL    HW3 2812   4.029   0.353   1.097  2.1699 -0.1029 -0.3364
  702SOL    MW4 2813   4.050   0.343   1.181  0.4333  0.3304  0.1707
  703SOL     OW 2814   4.313   0.488   1.244 -0.8514 -0.0391 -0.4803
  703SOL    HW2 2815   4.313   0.489   1.340 -1.1337 -1.2837 -0.4669
  703SOL    HW3 2816   4.229   0.449   1.220 -0.2525 -0.8893 -1.2163
  703SOL    MW4 2817   4.302   0.483   1.254 -0.8096 -0.3155 -0.5757
  704SOL     OW 2818   4.265   0.743   1.125 -0.2908  0.4318  0.3772
  704SOL    HW2 2819   4.304   0.671   1.175  1.3424  1.6337  0.8544
  704SOL    HW3 2820   4.239   0.703   1.042  1.0918 -0.5947  0.4312
  704SOL    MW4 2821   4.267   0.728   1.121  0.1071  0.4550  0.4473
  705SOL     OW 2822   4.048   0.881   1.227 -0.3713  0.3488 -0.2892
  705SOL    HW2 2823   4.051   0.855   1.319  1.2554  1.3986 -0.0149
  705SOL    HW3 2824   4.122   0.835   1.187  0.6328  2.0438 -0.4517
  705SOL    MW4 2825   4.058   0.872   1.234 -0.0242  0.7110 -0.2744
  706SOL     OW 2826   4.069   1.155   1.120  0.2024 -0.0777 -0.1834
  706SOL    HW2 2827   4.058   1.065   1.149  0.1545 -0.6130 -1.8544
  706SOL    HW3 2828   3.986   1.197   1.143 -0.3066 -0.8059 -0.6891
  706SOL    MW4 2829   4.057   1.149   1.127  0.1289 -0.2444 -0.4706
  707SOL     OW 2830   4.276   1.273   1.263  0.8513 -0.0541  0.1999
  707SOL    HW2 2831   4.263   1.273   1.357 -0.6656  0.1200 -0.0119
  707SOL    HW3 2832   4.208   1.215   1.229  1.4604 -0.2103 -0.7795
  707SOL    MW4 2833   4.266   1.265   1.271  0.7316 -0.0518  0.0428
  708SOL     OW 2834   4.256   1.536   1.219  0.0587 -0.0329  0.1143
  708SOL    HW2 2835   4.269   1.441   1.223  1.7045  0.2282  1.3087
  708SOL    HW3 2836   4.342   1.573   1.239 -0.6757  1.7180  0.0992
  708SOL    MW4 2837   4.269   1.528   1.222  0.1789  0.2326  0.2699
  709SOL     OW 2838   4.031   1.700   1.266 -0.2868  0.1447  0.1806
  709SOL    HW2 2839   4.021   1.688   1.360 -0.6112 -0.0635  0.1219
  709SOL    HW3 2840   4.098   1.637   1.240 -2.6888 -2.3051 -0.2905
  709SOL    MW4 2841   4.038   1.690   1.275 -0.6465 -0.2060  0.1107
  710SOL     OW 2842   4.056   1.950   1.138  0.1261  0.0183  0.7743
  710SOL    HW2 2843   4.051   1.864   1.180 -0.9716 -0.2596  0.0973
  710SOL    HW3 2844   4.069   1.930   1.045  1.9133  0.6179  0.8800
  710SOL    MW4 2845   4.057   1.936   1.131  0.2171  0.0607  0.6989
  711SOL     OW 2846   4.288   2.099   1.242  0.0887  0.3968  0.1513
  711SOL    HW2 2847   4.293   2.183   1.196  0.4855  0.2222 -0.1318
  711SOL    HW3 2848   4.213   2.054   1.203 -0.8883  1.1296  1.1715
  711SOL    MW4 2849   4.279   2.104   1.231  0.0121  0.4704  0.2486
  712SOL     OW 2850   4.276   2.355   1.125 -0.1456  0.0002  0.0276
  712SOL    HW2 2851   4.186   2.375   1.151 -0.2641 -1.1974  0.5607
  712SOL    HW3 2852   4.271   2.341   1.031 -0.3727  0.7205 -0.0720
  712SOL    MW4 2853   4.263   2.356   1.116 -0.1912 -0.0628  0.0848
  713SOL     OW 2854   4.053   2.400   1.245  0.2607 -0.0472  0.1676
  713SOL    HW2 2855   4.054   2.407   1.340  0.9392  1.3054  0.0611
  713SOL    HW3 2856   4.041   2.489   1.214 -0.4826 -0.5408 -1.0130
  713SOL    MW4 2857   4.051   2.413   1.253  0.2521  0.0661 -0.0022
  714SOL     OW 2858   4.035   2.667   1.137 -0.2495 -0.2761  0.0285
  714SOL    HW2 2859   3.956   2.714   1.162  0.7072  1.4139 -0.0994
  714SOL    HW3 2860   4.023   2.649   1.043 -0.3507  0.2216 -0.0535
  714SOL    MW4 2861   4.023   2.671   1.128 -0.1366  0.0125  0.0008
  715SOL     OW 2862   4.246   2.813   1.247 -0.2062 -0.3967  0.0968
  715SOL    HW2 2863   4.245   2.894   1.197  3.1234 -0.0507  0.4260
  715SOL    HW3 2864   4.183   2.756   1.203 -2.0896  2.1094 -0.5378
  715SOL    MW4 2865   4.238   2.816   1.235 -0.0154 -0.0204  0.0565
  716SOL     OW 2866   4.271   3.088   1.135  0.2485 -0.1653 -0.0244
  716SOL    HW2 2867   4.196   3.129   1.177  0.3284  0.1036 -0.1413
  716SOL    HW3 2868   4.256   3.100   1.041  0.8305  0.6009 -0.0280
  716SOL    MW4 2869   4.259   3.095   1.128  0.3358 -0.0287 -0.0403
  717SOL     OW 2870   4.047   3.203   1.239 -0.2320  0.1355 -0.2203
  717SOL    HW2 2871   4.042   3.205   1.335 -0.8015  1.3086 -0.2659
  717SOL    HW3 2872   3.965   3.162   1.211 -0.4930  0.6611 -0.2341
  717SOL    MW4 2873   4.036   3.198   1.248 -0.3416  0.3596 -0.2281
  718SOL     OW 2874   4.047   3.485   1.126  0.0416 -0.0228 -0.1319
  718SOL    HW2 2875   4.045   3.391   1.145 -0.3083 -0.0797 -0.4396
  718SOL    HW3 2876   3.966   3.519   1.163  1.2388  0.5705  2.0230
  718SOL    MW4 2877   4.036   3.477   1.133  0.1534  0.0480  0.1118
  719SOL     OW 2878   4.228   3.665   1.227 -0.1893 -0.1389 -0.2241
  719SOL    HW2 2879   4.164   3.605   1.188 -1.5916  0.9493  0.3561
  719SOL    HW3 2880   4.313   3.623   1.212 -1.1388 -2.2275  0.1042
  719SOL    MW4 2881   4.231   3.652   1.220 -0.4996 -0.2709 -0.1042
  720SOL     OW 2882   4.279   3.910   1.105 -0.2112 -0.0768  0.0286
  720SOL    HW2 2883   4.202   3.953   1.142  0.0244  0.6260 -0.2894
  720SOL    HW3 2884   4.276   3.821   1.140 -2.0512 -0.5533 -1.2714
  720SOL    MW4 2885   4.269   3.904   1.114 -0.4229 -0.0470 -0.1849
  721SOL     OW 2886   4.055   4.033   1.214 -0.3262 -0.4553  0.9000
  721SOL    HW2 2887   4.028   4.118   1.179 -0.3773  0.3670  2.8838
  721SOL    HW3 2888   3.990   3.971   1.181 -1.1327  0.5236  0.6556
  721SOL    MW4 2889   4.043   4.036   1.205 -0.4393 -0.2176  1.1295
  722SOL     OW 2890   4.041   4.281   1.107  0.1411  0.1831  0.0045
  722SOL    HW2 2891   3.972   4.339   1.139 -0.5808 -1.0766  0.7879
  722SOL    HW3 2892   4.029   4.279   1.012 -1.5336 -0.7771  0.2177
  722SOL    MW4 2893   4.030   4.288   1.098 -0.1751 -0.1098  0.1360
  723SOL     OW 2894   4.286   4.356   1.229  0.4982 -0.2475 -0.0334
  723SOL    HW2 2895   4.205   4.334   1.182  0.6211 -0.8906  0.0446
  723SOL    HW3 2896   4.356   4.319   1.175  0.5681 -1.9732  1.1955
  723SOL    MW4 2897   4.284   4.348   1.216  0.5236 -0.5600  0.1390
  724SOL     OW 2898   0.277   4.628   1.621  0.2399 -0.1840 -0.0101
  724SOL    HW2 2899   0.348   4.688   1.602  0.7753 -0.4592  1.0919
  724SOL    HW3 2900   0.197   4.677   1.600  0.6378  1.2435  1.7378
  724SOL    MW4 2901   0.276   4.642   1.616  0.3630 -0.0319  0.3659
  725SOL     OW 2902   0.028   0.109   1.522  0.3201 -0.4440 -0.0166
  725SOL    HW2 2903  -0.053   0.066   1.548 -0.5663  0.9311 -0.4487
  725SOL    HW3 2904   0.023   0.116   1.427  0.2193  1.0409  0.0856
  725SOL    MW4 2905   0.017   0.105   1.513  0.1898 -0.0666 -0.0601
  726SOL     OW 2906   0.035   0.366   1.631 -0.4002 -0.2116  0.0322
  726SOL    HW2 2907   0.034   0.368   1.727 -0.3071 -0.9677  0.0540
  726SOL    HW3 2908   0.030   0.273   1.609  1.7166 -0.1873 -0.6625
  726SOL    MW4 2909   0.035   0.354   1.641 -0.1086 -0.3082 -0.0566
  727SOL     OW 2910   0.252   0.517   1.535 -0.0250  0.0249 -0.1438
  727SOL    HW2 2911   0.181   0.462   1.569  0.5553 -1.2186 -0.9024
  727SOL    HW3 2912   0.237   0.520   1.440  0.6301  0.1995 -0.2462
  727SOL    MW4 2913   0.240   0.510   1.527  0.1380 -0.1161 -0.2574
  728SOL     OW 2914   0.222   0.793   1.582  0.4576 -0.5085  0.1823
  728SOL    HW2 2915   0.301   0.839   1.552 -0.7868  0.4724 -1.7446
  728SOL    HW3 2916   0.246   0.701   1.578  1.7874 -0.1950  0.4455
  728SOL    MW4 2917   0.236   0.787   1.577  0.4688 -0.3377 -0.0372
  729SOL     OW 2918   4.465   0.889   1.501  0.0804  0.3324 -0.0470
  729SOL    HW2 2919   4.462   0.977   1.538  0.1743  0.4657 -0.3640
  729SOL    HW3 2920   4.547   0.852   1.535 -1.3502 -0.6659  2.4696
  729SOL    MW4 2921   4.475   0.896   1.511 -0.0960  0.2183  0.2432
  730SOL     OW 2922   0.014   1.154   1.608 -0.4818  0.0663  0.0763
  730SOL    HW2 2923   0.017   1.190   1.697 -0.2693  0.4699 -0.0952
  730SOL    HW3 2924   0.097   1.180   1.569 -0.8626  0.4606 -0.4702
  730SOL    MW4 2925   0.025   1.162   1.615 -0.5040  0.1716 -0.0184
  731SOL     OW 2926   0.242   1.259   1.492  0.3858  0.2733 -0.3135
  731SOL    HW2 2927   0.247   1.342   1.539  0.3532  0.0727  0.0435
  731SOL    HW3 2928   0.242   1.284   1.399 -0.8448  0.7406 -0.1921
  731SOL    MW4 2929   0.243   1.273   1.486  0.2191  0.3085 -0.2504
  732SOL     OW 2930   0.262   1.502   1.593  0.0089 -0.4517  0.4819
  732SOL    HW2 2931   0.290   1.527   1.682 -0.2176 -0.3440  0.5232
  732SOL    HW3 2932   0.174   1.539   1.585 -0.3745 -1.3348  0.5868
  732SOL    MW4 2933   0.255   1.510   1.604 -0.0715 -0.5540  0.5012
  733SOL     OW 2934   0.033   1.649   1.511  0.1448 -0.5707  0.3933
  733SOL    HW2 2935   0.025   1.737   1.546 -3.2155 -1.3589  1.7983
  733SOL    HW3 2936   0.024   1.660   1.416 -1.3851  0.4765  0.6488
  733SOL    MW4 2937   0.031   1.662   1.503 -0.5004 -0.5365  0.6124
  734SOL     OW 2938   0.034   1.904   1.616 -0.2228  0.0942  0.8208
  734SOL    HW2 2939   0.039   1.916   1.711  2.3214  2.6786  0.4334
  734SOL    HW3 2940  -0.033   1.966   1.587  0.8017  1.1697  0.6948
  734SOL    MW4 2941   0.026   1.914   1.625  0.2481  0.5771  0.7531
  735SOL     OW 2942   0.235   2.086   1.485 -0.0624 -0.0957  0.3916
  735SOL    HW2 2943   0.170   2.021   1.513 -0.2872  0.0104  0.1123
  735SOL    HW3 2944   0.232   2.083   1.390  0.6881 -0.4399  0.3764
  735SOL    MW4 2945   0.226   2.077   1.477  0.0070 -0.1271  0.3528
  736SOL     OW 2946   0.239   2.351   1.561  0.3316  0.3510 -0.5472
  736SOL    HW2 2947   0.246   2.357   1.656 -0.9480  2.3649 -0.5572
  736SOL    HW3 2948   0.244   2.257   1.542 -1.2963 -0.2190  1.6514
  736SOL    MW4 2949   0.241   2.340   1.571 -0.0520  0.5415 -0.2584
  737SOL     OW 2950   0.001   2.459   1.483  0.2514  0.7829 -0.4627
  737SOL    HW2 2951  -0.059   2.395   1.521  0.2310  1.5808  0.8832
  737SOL    HW3 2952   0.089   2.424   1.500  0.2251  0.7640 -0.3687
  737SOL    MW4 2953   0.005   2.446   1.490  0.2453  0.8857 -0.2727
  738SOL     OW 2954   4.486   2.726   1.574 -0.1421 -0.1827 -0.0142
  738SOL    HW2 2955   4.393   2.746   1.566  0.0681  0.8254  0.0979
  738SOL    HW3 2956   4.494   2.636   1.542 -1.0759 -0.0981 -0.4883
  738SOL    MW4 2957   4.475   2.716   1.569 -0.2375 -0.0385 -0.0620
  739SOL     OW 2958   0.213   2.882   1.493  0.3446 -0.0098  0.2702
  739SOL    HW2 2959   0.282   2.832   1.536  0.9819  0.3448 -0.3324
  739SOL    HW3 2960   0.133   2.833   1.511  0.7004 -0.2070  1.3069
  739SOL    MW4 2961   0.212   2.869   1.501  0.4756  0.0110  0.3275
  740SOL     OW 2962   0.228   3.151   1.597  0.4111  0.0942  0.7564
  740SOL    HW2 2963   0.142   3.193   1.592  0.5183  0.3658  1.1915
  740SOL    HW3 2964   0.220   3.074   1.540 -0.2697 -0.1589  1.1871
  740SOL    MW4 2965   0.216   3.147   1.589  0.3354  0.0967  0.8706
  741SOL     OW 2966   4.481   3.283   1.530 -0.2514 -0.0041 -0.6375
  741SOL    HW2 2967   4.503   3.373   1.555  1.4361 -0.6512  0.2875
  741SOL    HW3 2968   4.490   3.283   1.435  0.5396  0.6069 -0.5743
  741SOL    MW4 2969   4.485   3.295   1.521  0.0756 -0.0088 -0.5071
  742SOL     OW 2970   0.012   3.528   1.617 -0.1231  0.0827 -0.3726
  742SOL    HW2 2971   0.008   3.513   1.711 -0.1117 -0.7517 -0.5033
  742SOL    HW3 2972  -0.077   3.557   1.594 -1.0534 -2.8053 -0.6167
  742SOL    MW4 2973  -0.001   3.530   1.626 -0.2443 -0.4084 -0.4221
  743SOL     OW 2974   0.238   3.607   1.469 -0.4745 -0.5946 -0.3770
  743SOL    HW2 2975   0.239   3.694   1.510  0.8487 -0.2178 -1.1537
  743SOL    HW3 2976   0.167   3.561   1.511 -0.4371  0.4791  0.8874
  743SOL    MW4 2977   0.229   3.613   1.480 -0.2950 -0.4032 -0.3127
  744SOL     OW 2978   0.250   3.861   1.604 -0.2445  0.0448  0.0975
  744SOL    HW2 2979   0.246   3.857   1.699  1.7836 -0.3563  0.1856
  744SOL    HW3 2980   0.325   3.918   1.585 -1.0430  0.6828 -1.2624
  744SOL    MW4 2981   0.259   3.868   1.614 -0.0823  0.0760 -0.0703
  745SOL     OW 2982   0.018   3.966   1.482  0.6186 -0.0575  0.2180
  745SOL    HW2 2983   0.033   4.055   1.512  0.4785 -0.0074  0.1364
  745SOL    HW3 2984   0.093   3.917   1.515  0.6971  0.0909  0.2606
  745SOL    MW4 2985   0.030   3.971   1.490  0.6105 -0.0313  0.2129
  746SOL     OW 2986   0.041   4.242   1.572 -0.6094 -0.0354  0.2839
  746SOL    HW2 2987   0.041   4.227   1.666 -0.7580  0.6116  0.3848
  746SOL    HW3 2988  -0.046   4.276   1.552 -0.1106  1.1570  0.1216
  746SOL    MW4 2989   0.030   4.245   1.582 -0.5632  0.2073  0.2758
  747SOL     OW 2990   0.264   4.373   1.491 -0.0389  0.3386  0.0213
  747SOL    HW2 2991   0.185   4.337   1.532 -0.8780  1.0831 -0.9101
  747SOL    HW3 2992   0.268   4.463   1.523 -0.4059  0.7601 -1.1074
  747SOL    MW4 2993   0.254   4.380   1.501 -0.1980  0.4924 -0.2505
  748SOL     OW 2994   0.693   4.662   1.602  0.0611 -0.1801 -0.1353
  748SOL    HW2 2995   0.761   4.706   1.549  0.3248  1.8096  1.7743
  748SOL    HW3 2996   0.611   4.688   1.561  0.3773 -1.4953 -1.6451
  748SOL    MW4 2997   0.691   4.671   1.589  0.1376 -0.0911 -0.0825
  749SOL     OW 2998   0.462   0.115   1.496 -0.1450  0.3589  0.4013
  749SOL    HW2 2999   0.470   0.203   1.534 -1.8684  0.2630  1.0504
  749SOL    HW3 3000   0.461   0.129   1.402 -0.8406  1.0973  0.5105
  749SOL    MW4 3001   0.463   0.128   1.489 -0.4642  0.4437  0.5014
  750SOL     OW 3002   0.486   0.367   1.618  0.3275  0.2098  0.2855
  750SOL    HW2 3003   0.564   0.415   1.590  0.5011 -0.5177 -0.5122
  750SOL    HW3 3004   0.413   0.414   1.580  0.5690 -0.8565 -1.5743
  750SOL    MW4 3005   0.487   0.379   1.609  0.3822 -0.0268 -0.0651
  751SOL     OW 3006   0.718   0.518   1.536  0.5375  0.2594  0.0927
  751SOL    HW2 3007   0.707   0.611   1.556  1.3309  0.6065 -1.0242
  751SOL    HW3 3008   0.713   0.513   1.441  0.4114 -0.8545  0.1515
  751SOL    MW4 3009   0.716   0.530   1.527  0.6255  0.1583 -0.0469
  752SOL     OW 3010   0.672   0.782   1.634  0.1072  0.2878 -0.2204
  752SOL    HW2 3011   0.690   0.776   1.728  1.8351  0.0001 -0.5609
  752SOL    HW3 3012   0.746   0.830   1.598 -0.4906  0.3043 -1.4606
  752SOL    MW4 3013   0.684   0.788   1.642  0.2563  0.2520 -0.4290
  753SOL     OW 3014   0.451   0.900   1.490 -0.6760  0.2096 -0.2242
  753SOL    HW2 3015   0.456   0.989   1.525  1.9809  0.6649 -1.6169
  753SOL    HW3 3016   0.518   0.851   1.538 -1.5594 -0.8544 -0.0509
  753SOL    MW4 3017   0.460   0.905   1.501 -0.4420  0.1293 -0.3851
  754SOL     OW 3018   0.460   1.154   1.595 -0.6643  0.5379  0.4692
  754SOL    HW2 3019   0.530   1.203   1.552  0.1887 -0.1308  1.0646
  754SOL    HW3 3020   0.379   1.192   1.561 -0.0224  2.1470  0.6966
  754SOL    MW4 3021   0.459   1.165   1.585 -0.4671  0.6620  0.5778
  755SOL     OW 3022   0.649   1.281   1.456  0.3480  0.2730  0.0768
  755SOL    HW2 3023   0.661   1.371   1.484  1.6215  0.0774  0.1725
  755SOL    HW3 3024   0.659   1.284   1.361 -1.6960  0.5654 -0.1409
  755SOL    MW4 3025   0.652   1.293   1.447  0.2463  0.2858  0.0607
  756SOL     OW 3026   0.703   1.536   1.576  0.0342 -0.1470  0.0226
  756SOL    HW2 3027   0.780   1.580   1.539  1.2949 -2.2280  0.1073
  756SOL    HW3 3028   0.631   1.597   1.560  1.5619  1.5095 -0.7301
  756SOL    MW4 3029   0.704   1.550   1.569  0.4021 -0.2030 -0.0655
  757SOL     OW 3030   0.462   1.685   1.504  0.3756 -0.0340 -0.1024
  757SOL    HW2 3031   0.440   1.773   1.536  0.9893 -0.2005  0.7999
  757SOL    HW3 3032   0.382   1.635   1.515  0.0809  0.3605 -0.4314
  757SOL    MW4 3033   0.449   1.690   1.509  0.4177 -0.0039 -0.0268
  758SOL     OW 3034   0.450   1.955   1.592 -0.2521 -0.3331 -0.1390
  758SOL    HW2 3035   0.439   1.960   1.687 -0.2327  0.0709 -0.1556
  758SOL    HW3 3036   0.383   2.015   1.558  0.0045 -0.1739 -0.3636
  758SOL    MW4 3037   0.439   1.963   1.600 -0.2157 -0.2588 -0.1708
  759SOL     OW 3038   0.686   2.076   1.491 -0.2482  0.0986 -0.0599
  759SOL    HW2 3039   0.755   2.028   1.536 -0.3834 -1.4938 -1.4806
  759SOL    HW3 3040   0.605   2.030   1.514 -0.5274  0.3802 -0.4686
  759SOL    MW4 3041   0.684   2.064   1.500 -0.3028 -0.0744 -0.3013
  760SOL     OW 3042   0.667   2.353   1.590 -0.1523  0.5379  0.7087
  760SOL    HW2 3043   0.592   2.392   1.544  0.2042  1.0605  0.5705
  760SOL    HW3 3044   0.678   2.267   1.548  0.2864  1.0863 -0.3099
  760SOL    MW4 3045   0.658   2.346   1.578 -0.0474  0.6792  0.5561
  761SOL     OW 3046   0.446   2.494   1.458  0.5743 -0.5620 -0.1892
  761SOL    HW2 3047   0.443   2.580   1.500  0.4513  0.0818 -1.5023
  761SOL    HW3 3048   0.371   2.447   1.495 -0.0989  0.3312 -0.4159
  761SOL    MW4 3049   0.436   2.499   1.469  0.4693 -0.3592 -0.3923
  762SOL     OW 3050   0.405   2.732   1.606  0.9613  1.0840 -0.0142
  762SOL    HW2 3051   0.400   2.730   1.701  0.2785  3.5522  0.0453
  762SOL    HW3 3052   0.492   2.767   1.587  1.2846  0.1380 -0.3201
  762SOL    MW4 3053   0.416   2.736   1.616  0.9138  1.2848 -0.0467
  763SOL     OW 3054   0.649   2.818   1.523 -0.1289 -0.3261 -0.3038
  763SOL    HW2 3055   0.663   2.909   1.549 -2.2264  0.0330 -0.3518
  763SOL    HW3 3056   0.669   2.816   1.430  0.4483 -0.0244 -0.1865
  763SOL    MW4 3057   0.653   2.830   1.514 -0.3295 -0.2389 -0.2947
  764SOL     OW 3058   0.703   3.092   1.613 -0.6806 -0.1117  0.1963
  764SOL    HW2 3059   0.771   3.143   1.569 -1.3421  0.6456  0.0295
  764SOL    HW3 3060   0.622   3.139   1.594 -1.2146 -0.8298  0.6525
  764SOL    MW4 3061   0.701   3.105   1.604 -0.8383 -0.1065  0.2345
  765SOL     OW 3062   0.471   3.234   1.514  0.0204  0.1962 -0.4489
  765SOL    HW2 3063   0.382   3.216   1.545  0.0366  0.1487 -0.4287
  765SOL    HW3 3064   0.462   3.243   1.420 -0.0010  0.1589 -0.4508
  765SOL    MW4 3065   0.458   3.233   1.506  0.0197  0.1850 -0.4465
  766SOL     OW 3066   0.469   3.498   1.599  0.1497 -0.6690  0.5139
  766SOL    HW2 3067   0.481   3.406   1.574  1.8814 -0.4690  0.5916
  766SOL    HW3 3068   0.390   3.525   1.552 -0.9650 -2.4828  1.2850
  766SOL    MW4 3069   0.460   3.489   1.590  0.2311 -0.8819  0.6259
  767SOL     OW 3070   0.700   3.622   1.548  0.1978  0.4219 -0.3357
  767SOL    HW2 3071   0.774   3.577   1.587  0.1165  0.8808  0.3597
  767SOL    HW3 3072   0.624   3.570   1.574  0.1689  0.5778 -0.1094
  767SOL    MW4 3073   0.700   3.609   1.556  0.1833  0.5030 -0.2141
  768SOL     OW 3074   0.699   3.891   1.616 -0.4323 -0.6523  0.2865
  768SOL    HW2 3075   0.774   3.917   1.562  0.6094 -2.0167  1.0478
  768SOL    HW3 3076   0.695   3.796   1.606 -0.5384 -0.8636  2.2130
  768SOL    MW4 3077   0.709   3.882   1.607 -0.3088 -0.8602  0.6411
  769SOL     OW 3078   0.467   4.011   1.534 -0.2164 -0.0546 -0.0270
  769SOL    HW2 3079   0.549   3.964   1.546  1.2868  2.3990 -0.3517
  769SOL    HW3 3080   0.462   4.027   1.439 -0.1461  1.4131  0.2097
  769SOL    MW4 3081   0.477   4.007   1.523 -0.0088  0.4627 -0.0386
  770SOL     OW 3082   0.468   4.274   1.624  0.0284  0.3049 -0.1484
  770SOL    HW2 3083   0.463   4.180   1.609 -1.2642 -0.0341  2.2558
  770SOL    HW3 3084   0.388   4.309   1.585 -0.8938  0.0342  1.4639
  770SOL    MW4 3085   0.457   4.266   1.617 -0.2638  0.2245  0.3815
  771SOL     OW 3086   0.681   4.393   1.471  0.0193  0.3218 -0.0083
  771SOL    HW2 3087   0.606   4.348   1.512  0.8177 -0.9150  0.1448
  771SOL    HW3 3088   0.690   4.474   1.521  0.3488 -0.7049  1.6653
  771SOL    MW4 3089   0.672   4.398   1.483  0.1681  0.0231  0.2327
  772SOL     OW 3090   1.098   4.644   1.579  0.0012 -0.5653  0.4277
  772SOL    HW2 3091   1.108   4.635   1.674  0.0963  1.3327  0.6218
  772SOL    HW3 3092   1.178   4.689   1.551 -1.5933  2.1305 -0.0171
  772SOL    MW4 3093   1.110   4.649   1.588 -0.1966  0.0408  0.3946
  773SOL     OW 3094   0.894   0.132   1.466  0.4336 -0.2342  0.2474
  773SOL    HW2 3095   0.872   0.211   1.515  1.6962 -1.1254  2.3734
  773SOL    HW3 3096   0.968   0.095   1.514  0.4143 -2.2384 -1.2114
  773SOL    MW4 3097   0.901   0.137   1.479  0.5976 -0.6162  0.3354
  774SOL     OW 3098   0.941   0.374   1.606 -0.2214  0.1185  0.4113
  774SOL    HW2 3099   0.921   0.339   1.692 -0.4219 -1.8141 -0.3948
  774SOL    HW3 3100   0.877   0.444   1.593 -1.1433 -0.5604  1.2216
  774SOL    MW4 3101   0.930   0.378   1.615 -0.3695 -0.2261  0.4119
  775SOL     OW 3102   1.149   0.494   1.477 -0.1914  0.1557  0.1252
  775SOL    HW2 3103   1.131   0.579   1.516 -0.8801 -0.5502  1.3664
  775SOL    HW3 3104   1.090   0.434   1.521  2.5034 -1.5489  1.5460
  775SOL    MW4 3105   1.139   0.497   1.488  0.0733 -0.1623  0.4764
  776SOL     OW 3106   1.131   0.749   1.588  0.0314 -0.2049 -0.0332
  776SOL    HW2 3107   1.122   0.746   1.683  0.3568  0.0213  0.0050
  776SOL    HW3 3108   1.208   0.805   1.573  0.2458 -0.6005 -0.4133
  776SOL    MW4 3109   1.140   0.756   1.599  0.1026 -0.2272 -0.0783
  777SOL     OW 3110   0.898   0.896   1.501  0.1624  0.2801 -0.1113
  777SOL    HW2 3111   0.976   0.846   1.527  0.5209  0.9682  0.1405
  777SOL    HW3 3112   0.904   0.900   1.405  0.3534  0.1992 -0.1036
  777SOL    MW4 3113   0.909   0.890   1.491  0.2349  0.3602 -0.0771
  778SOL     OW 3114   0.870   1.175   1.586  0.1072  0.3136  0.6540
  778SOL    HW2 3115   0.874   1.094   1.536  0.3709  0.9219 -0.3174
  778SOL    HW3 3116   0.789   1.218   1.557 -1.1029 -0.5411  2.6451
  778SOL    MW4 3117   0.860   1.170   1.576 -0.0177  0.2811  0.7885
  779SOL     OW 3118   1.088   1.329   1.469  0.3101  0.3163  0.3984
  779SOL    HW2 3119   1.156   1.287   1.522  0.3485 -0.8822 -0.5715
  779SOL    HW3 3120   1.007   1.289   1.499  0.4043 -0.9123 -0.9379
  779SOL    MW4 3121   1.086   1.318   1.480  0.3276 -0.0039  0.0942
  780SOL     OW 3122   1.162   1.563   1.571  0.0386 -0.1214 -0.0369
  780SOL    HW2 3123   1.235   1.611   1.532 -0.7896  0.6602 -0.6446
  780SOL    HW3 3124   1.152   1.486   1.516  0.5348 -0.3330  0.1682
  780SOL    MW4 3125   1.170   1.559   1.558 -0.0052 -0.0462 -0.0900
  781SOL     OW 3126   0.906   1.710   1.485 -0.3529  0.0648  0.0644
  781SOL    HW2 3127   0.997   1.694   1.510 -0.2448  1.9110  0.9625
  781SOL    HW3 3128   0.906   1.702   1.390  0.9721  1.0025 -0.0403
  781SOL    MW4 3129   0.918   1.707   1.476 -0.1638  0.4321  0.1691
  782SOL     OW 3130   0.902   1.953   1.600 -0.0179 -0.0918  0.4343
  782SOL    HW2 3131   0.975   2.007   1.569 -0.1026 -0.3418 -0.2203
  782SOL    HW3 3132   0.905   1.875   1.545 -0.4210 -0.3697  0.7998
  782SOL    MW4 3133   0.912   1.950   1.589 -0.0823 -0.1614  0.3962
  783SOL     OW 3134   1.117   2.117   1.501  0.5163  0.1570 -0.4489
  783SOL    HW2 3135   1.199   2.075   1.524  0.3614 -0.4332 -0.9639
  783SOL    HW3 3136   1.130   2.209   1.523  1.6805  0.2556 -1.4902
  783SOL    MW4 3137   1.129   2.124   1.507  0.6495  0.0921 -0.6543
  784SOL     OW 3138   1.167   2.361   1.617  0.5596 -0.0822  0.0747
  784SOL    HW2 3139   1.234   2.396   1.557  0.6778 -0.9332 -0.2859
  784SOL    HW3 3140   1.085   2.399   1.586  0.7419  0.1848 -0.0837
  784SOL    MW4 3141   1.165   2.371   1.605  0.5992 -0.1592  0.0063
  785SOL     OW 3142   0.932   2.466   1.531 -0.1322  0.0193 -0.0224
  785SOL    HW2 3143   0.905   2.552   1.563 -0.3402  0.0497 -0.2840
  785SOL    HW3 3144   0.851   2.414   1.532 -0.5620  0.6040 -2.4705
  785SOL    MW4 3145   0.918   2.471   1.536 -0.2163  0.1004 -0.3799
  786SOL     OW 3146   0.907   2.728   1.605  0.1453  0.0600  0.4120
  786SOL    HW2 3147   0.925   2.739   1.698  1.0940  1.2431  0.0978
  786SOL    HW3 3148   0.816   2.757   1.595 -0.4366 -1.4671  1.2061
  786SOL    MW4 3149   0.897   2.734   1.616  0.1937  0.0146  0.4753
  787SOL     OW 3150   1.119   2.889   1.480 -0.0766  0.5212  0.3627
  787SOL    HW2 3151   1.110   2.973   1.524  0.4434  0.6079  0.3121
  787SOL    HW3 3152   1.058   2.831   1.525  0.6321  0.5412  1.3794
  787SOL    MW4 3153   1.110   2.893   1.492  0.0855  0.5353  0.4902
  788SOL     OW 3154   1.107   3.141   1.575  0.0998 -0.0388 -0.3416
  788SOL    HW2 3155   1.113   3.146   1.670 -0.2448 -0.1008 -0.3166
  788SOL    HW3 3156   1.195   3.165   1.544  0.2938 -0.3120 -0.0020
  788SOL    MW4 3157   1.120   3.145   1.583  0.0799 -0.0831 -0.2935
  789SOL     OW 3158   0.885   3.230   1.456 -0.2464  0.6795  0.1249
  789SOL    HW2 3159   0.966   3.183   1.476  0.9929  2.7228  0.0668
  789SOL    HW3 3160   0.890   3.246   1.362 -0.8666  0.5746  0.0708
  789SOL    MW4 3161   0.896   3.226   1.446 -0.1647  0.9353  0.1101
  790SOL     OW 3162   0.890   3.441   1.646 -0.2197  0.1193 -0.5664
  790SOL    HW2 3163   0.957   3.497   1.608  1.0300 -0.3782  0.8304
  790SOL    HW3 3164   0.888   3.363   1.590  2.6201 -1.2445  1.0943
  790SOL    MW4 3165   0.899   3.438   1.634  0.3199 -0.1263 -0.1630
  791SOL     OW 3166   1.085   3.607   1.543  0.1268  0.3480 -0.1373
  791SOL    HW2 3167   1.173   3.576   1.566  0.1136 -0.2347 -0.8670
  791SOL    HW3 3168   1.089   3.621   1.449 -0.5979  0.2172 -0.1849
  791SOL    MW4 3169   1.097   3.605   1.534  0.0294  0.2539 -0.2398
  792SOL     OW 3170   1.127   3.867   1.600 -0.2897 -0.0332  0.1152
  792SOL    HW2 3171   1.205   3.884   1.547 -1.7914  2.8025 -1.2883
  792SOL    HW3 3172   1.103   3.777   1.580  2.7830 -1.0631  0.8189
  792SOL    MW4 3173   1.134   3.857   1.591 -0.0824  0.2051  0.0229
  793SOL     OW 3174   0.901   3.987   1.486 -0.9254 -0.0527  0.5940
  793SOL    HW2 3175   0.913   4.080   1.505 -0.5755  0.5024 -2.0712
  793SOL    HW3 3176   0.978   3.944   1.524 -0.5713  0.8789  0.9487
  793SOL    MW4 3177   0.913   3.994   1.493 -0.8325  0.1434  0.2892
  794SOL     OW 3178   0.934   4.268   1.540  0.6579  0.0901  0.3243
  794SOL    HW2 3179   0.922   4.248   1.632 -1.1305  0.2925  0.1603
  794SOL    HW3 3180   0.858   4.322   1.517  0.8314 -0.3447 -1.3696
  794SOL    MW4 3181   0.922   4.273   1.549  0.4448  0.0595  0.0791
  795SOL     OW 3182   1.163   4.381   1.452 -0.2460 -0.6750 -0.4445
  795SOL    HW2 3183   1.085   4.334   1.482 -0.0096 -0.0835  1.1450
  795SOL    HW3 3184   1.153   4.468   1.488  1.8957 -1.0316  1.0446
  795SOL    MW4 3185   1.151   4.386   1.461  0.0678 -0.6440 -0.0383
  796SOL     OW 3186   1.567   4.629   1.588  0.4644  0.3559 -0.4440
  796SOL    HW2 3187   1.562   4.621   1.683 -2.4379 -1.4227 -0.6688
  796SOL    HW3 3188   1.493   4.687   1.565  0.7454  0.2553 -1.6626
  796SOL    MW4 3189   1.556   4.636   1.597  0.1185  0.1080 -0.6344
  797SOL     OW 3190   1.342   0.112   1.500 -0.3200  0.1768  0.1138
  797SOL    HW2 3191   1.368   0.194   1.541  0.8231  0.1640 -0.5449
  797SOL    HW3 3192   1.339   0.132   1.406 -2.3603  0.0700  0.1301
  797SOL    MW4 3193   1.345   0.125   1.493 -0.4384  0.1610  0.0290
  798SOL     OW 3194   1.372   0.375   1.598  0.3487 -0.2654 -0.0854
  798SOL    HW2 3195   1.442   0.435   1.572 -0.3013  0.4135 -0.3100
  798SOL    HW3 3196   1.292   0.416   1.565 -0.0506 -1.5605 -0.7561
  798SOL    MW4 3197   1.370   0.389   1.590  0.2103 -0.3467 -0.2035
  799SOL     OW 3198   1.563   0.572   1.532  0.1571 -0.3228  0.3099
  799SOL    HW2 3199   1.635   0.512   1.551 -0.5106 -1.1001  0.4133
  799SOL    HW3 3200   1.551   0.566   1.437  0.2322 -0.1837  0.2910
  799SOL    MW4 3201   1.571   0.563   1.522  0.0789 -0.4070  0.3210
  800SOL     OW 3202   1.564   0.837   1.623 -0.0605  0.4846 -0.0283
  800SOL    HW2 3203   1.588   0.839   1.716 -1.7928  0.8470  0.4197
  800SOL    HW3 3204   1.553   0.744   1.603  1.2797  0.3377 -0.1366
  800SOL    MW4 3205   1.566   0.825   1.633 -0.1122  0.5131  0.0165
  801SOL     OW 3206   1.335   0.962   1.544  0.2767 -0.2591 -0.4337
  801SOL    HW2 3207   1.422   0.949   1.581  0.7531  2.3045 -0.5587
  801SOL    HW3 3208   1.346   0.947   1.451  0.6435  0.2909 -0.4817
  801SOL    MW4 3209   1.348   0.958   1.537  0.3880  0.1517 -0.4566
  802SOL     OW 3210   1.298   1.225   1.607  0.4562 -0.0356  0.2085
  802SOL    HW2 3211   1.303   1.221   1.702  1.4446 -0.5247  0.1495
  802SOL    HW3 3212   1.294   1.133   1.579  2.6846 -0.0053 -0.3132
  802SOL    MW4 3213   1.298   1.212   1.616  0.8806 -0.0961  0.1319
  803SOL     OW 3214   1.573   1.265   1.526 -0.1080 -0.5011 -0.3021
  803SOL    HW2 3215   1.486   1.252   1.564 -0.0403 -0.2301 -0.0568
  803SOL    HW3 3216   1.559   1.257   1.432 -0.1281 -2.0936 -0.1917
  803SOL    MW4 3217   1.560   1.262   1.519 -0.1017 -0.6754 -0.2551
  804SOL     OW 3218   1.571   1.529   1.600  0.5781  0.2194  0.0500
  804SOL    HW2 3219   1.583   1.540   1.695 -0.9461 -0.2660  0.3168
  804SOL    HW3 3220   1.576   1.434   1.587  0.7020  0.2816 -0.3352
  804SOL    MW4 3221   1.573   1.518   1.611  0.3933  0.1636  0.0344
  805SOL     OW 3222   1.374   1.704   1.460  0.3895 -0.0167 -0.1459
  805SOL    HW2 3223   1.445   1.647   1.490  0.5107 -0.2780 -0.9146
  805SOL    HW3 3224   1.386   1.709   1.365 -1.1353 -0.7586 -0.3914
  805SOL    MW4 3225   1.385   1.697   1.451  0.2043 -0.1491 -0.2797
  806SOL     OW 3226   1.358   1.969   1.564  0.7590  0.0828 -0.0408
  806SOL    HW2 3227   1.385   1.958   1.655  0.6408 -0.0261 -0.0183
  806SOL    HW3 3228   1.362   1.881   1.527 -0.8770 -0.1592  0.3287
  806SOL    MW4 3229   1.362   1.956   1.571  0.5276  0.0365  0.0109
  807SOL     OW 3230   1.598   2.097   1.496 -0.3725 -0.0506 -0.3429
  807SOL    HW2 3231   1.509   2.066   1.512 -0.3699 -0.1931 -0.6121
  807SOL    HW3 3232   1.605   2.103   1.401 -0.2933  0.5352 -0.3066
  807SOL    MW4 3233   1.587   2.094   1.486 -0.3617  0.0079 -0.3736
  808SOL     OW 3234   1.575   2.351   1.555  0.2357 -0.1103 -0.1167
  808SOL    HW2 3235   1.652   2.394   1.517  0.1061 -0.5379 -0.8921
  808SOL    HW3 3236   1.585   2.258   1.532  0.0443 -0.3397  0.7266
  808SOL    MW4 3237   1.586   2.344   1.547  0.1934 -0.1970 -0.1078
  809SOL     OW 3238   1.354   2.488   1.463 -0.3371  0.1536  0.1255
  809SOL    HW2 3239   1.363   2.574   1.504 -0.4444  0.8920 -1.3703
  809SOL    HW3 3240   1.426   2.436   1.500 -0.6456  0.6833  1.5000
  809SOL    MW4 3241   1.365   2.492   1.473 -0.3920  0.3209  0.1095
  810SOL     OW 3242   1.349   2.740   1.595 -0.0118  0.0983 -0.2844
  810SOL    HW2 3243   1.424   2.778   1.550 -0.1116  0.4655 -0.1470
  810SOL    HW3 3244   1.273   2.780   1.553 -0.1611 -0.8629 -0.9526
  810SOL    MW4 3245   1.349   2.750   1.584 -0.0447  0.0199 -0.3545
  811SOL     OW 3246   1.568   2.860   1.496 -0.5697  0.6272 -0.0609
  811SOL    HW2 3247   1.635   2.804   1.536 -1.0520  1.2943  1.7212
  811SOL    HW3 3248   1.581   2.849   1.402 -0.7846 -2.6425  0.2169
  811SOL    MW4 3249   1.579   2.851   1.489 -0.6617  0.2838  0.2109
  812SOL     OW 3250   1.550   3.120   1.593  0.0491 -0.4326  0.3954
  812SOL    HW2 3251   1.628   3.162   1.557 -0.0050 -0.7645 -0.1280
  812SOL    HW3 3252   1.555   3.030   1.561 -0.3166 -0.5741  0.7328
  812SOL    MW4 3253   1.561   3.114   1.584 -0.0063 -0.4950  0.3709
  813SOL     OW 3254   1.343   3.238   1.458 -0.4728 -0.0888 -0.0030
  813SOL    HW2 3255   1.339   3.319   1.509 -2.0292 -0.3391  0.3144
  813SOL    HW3 3256   1.420   3.192   1.490  0.3069  1.1762 -0.0444
  813SOL    MW4 3257   1.352   3.243   1.469 -0.5753  0.0451  0.0334
  814SOL     OW 3258   1.324   3.477   1.597 -0.0522  0.4808 -0.2742
  814SOL    HW2 3259   1.329   3.461   1.691 -0.4833 -1.0192 -0.5015
  814SOL    HW3 3260   1.407   3.521   1.576  1.3542 -1.8269  0.3119
  814SOL    MW4 3261   1.336   3.481   1.606  0.0765 -0.0216 -0.2269
  815SOL     OW 3262   1.555   3.623   1.519  0.4118 -0.0102 -0.0437
  815SOL    HW2 3263   1.570   3.711   1.555  0.9462 -0.1469  0.0616
  815SOL    HW3 3264   1.556   3.636   1.424 -1.7138  0.4749 -0.0250
  815SOL    MW4 3265   1.557   3.636   1.511  0.2019  0.0358 -0.0273
  816SOL     OW 3266   1.614   3.892   1.584  0.0954 -0.1961  1.0371
  816SOL    HW2 3267   1.611   3.901   1.680  0.5161  0.3185  1.0009
  816SOL    HW3 3268   1.524   3.912   1.556  0.3745  1.3103  1.1853
  816SOL    MW4 3269   1.602   3.896   1.593  0.1878  0.0706  1.0519
  817SOL     OW 3270   1.358   3.969   1.496 -0.1466  0.1602  0.0365
  817SOL    HW2 3271   1.341   4.049   1.545  1.9217  1.8902 -1.9702
  817SOL    HW3 3272   1.344   3.993   1.405 -0.3475 -2.0242 -0.5362
  817SOL    MW4 3273   1.354   3.983   1.491  0.0998  0.1002 -0.3038
  818SOL     OW 3274   1.352   4.243   1.615 -0.0150 -0.8385  0.5056
  818SOL    HW2 3275   1.435   4.277   1.583  0.2739 -2.1851 -0.2352
  818SOL    HW3 3276   1.286   4.281   1.558  0.0361  0.5742  1.3610
  818SOL    MW4 3277   1.354   4.252   1.603  0.0299 -0.8298  0.5207
  819SOL     OW 3278   1.611   4.352   1.545 -0.5385 -0.0875 -0.3878
  819SOL    HW2 3279   1.694   4.325   1.583 -0.7774 -2.0222 -1.1745
  819SOL    HW3 3280   1.612   4.448   1.550  1.4169 -0.1217  0.2441
  819SOL    MW4 3281   1.622   4.362   1.551 -0.3120 -0.3473 -0.4082
  820SOL     OW 3282   2.011   0.030   1.645  0.3850 -0.4951 -0.3157
  820SOL    HW2 3283   2.006   0.034   1.740  0.8185 -1.5375 -0.2351
  820SOL    HW3 3284   1.930   0.071   1.614  0.2880 -0.0737  0.4968
  820SOL    MW4 3285   1.999   0.036   1.653  0.4294 -0.5770 -0.1979
  821SOL     OW 3286   1.771   0.138   1.546  0.1510  0.2911  0.4551
  821SOL    HW2 3287   1.701   0.076   1.563  1.5357 -1.3016  0.4855
  821SOL    HW3 3288   1.781   0.138   1.450  1.3525 -0.9135  0.5672
  821SOL    MW4 3289   1.763   0.130   1.535  0.4922 -0.0780  0.4739
  822SOL     OW 3290   1.796   0.404   1.607 -0.2851  0.2063  0.2992
  822SOL    HW2 3291   1.857   0.441   1.544  1.0048  0.9815  1.9737
  822SOL    HW3 3292   1.800   0.310   1.592  0.6457  0.3242 -0.2002
  822SOL    MW4 3293   1.804   0.396   1.597  0.0079  0.3241  0.4542
  823SOL     OW 3294   2.024   0.529   1.460 -0.0928 -0.1435 -0.1511
  823SOL    HW2 3295   2.092   0.476   1.503  0.3652  0.3773 -0.2370
  823SOL    HW3 3296   2.003   0.597   1.524 -0.3609 -0.1646 -0.2196
  823SOL    MW4 3297   2.030   0.531   1.474 -0.0678 -0.0776 -0.1715
  824SOL     OW 3298   2.021   0.771   1.604 -0.0799 -0.1932  0.3903
  824SOL    HW2 3299   2.095   0.828   1.583 -0.5953 -0.4037 -2.1655
  824SOL    HW3 3300   1.944   0.821   1.579 -0.7578 -0.4667  1.8852
  824SOL    MW4 3301   2.021   0.785   1.598 -0.2373 -0.2570  0.2503
  825SOL     OW 3302   1.794   0.922   1.499 -0.7515 -0.3848 -0.2639
  825SOL    HW2 3303   1.806   1.009   1.539  0.1044 -0.4624 -0.3464
  825SOL    HW3 3304   1.711   0.890   1.536  0.9385 -1.2488  2.9510
  825SOL    MW4 3305   1.784   0.929   1.510 -0.4156 -0.5091  0.1494
  826SOL     OW 3306   1.832   1.166   1.613  0.1016 -0.1018  0.1679
  826SOL    HW2 3307   1.907   1.204   1.567  0.5669 -1.5886 -0.3607
  826SOL    HW3 3308   1.761   1.229   1.600  1.1688  1.1536  0.3838
  826SOL    MW4 3309   1.832   1.179   1.605  0.3038 -0.1324  0.1266
  827SOL     OW 3310   2.049   1.304   1.483  0.2861 -0.3325  0.1350
  827SOL    HW2 3311   2.022   1.392   1.511 -2.0862 -0.9313 -0.1644
  827SOL    HW3 3312   2.054   1.310   1.387  0.7405 -0.3710  0.1537
  827SOL    MW4 3313   2.046   1.317   1.474  0.0330 -0.4166  0.0980
  828SOL     OW 3314   2.008   1.571   1.560  0.4984  0.2571 -0.2306
  828SOL    HW2 3315   2.070   1.630   1.517 -0.6085  1.2154 -0.5277
  828SOL    HW3 3316   1.922   1.606   1.537 -0.1399 -0.2570  1.3269
  828SOL    MW4 3317   2.005   1.583   1.551  0.2681  0.3157 -0.0643
  829SOL     OW 3318   1.765   1.663   1.467 -0.3645  0.0345 -0.0534
  829SOL    HW2 3319   1.702   1.601   1.504  0.4557 -0.3393  0.7596
  829SOL    HW3 3320   1.754   1.654   1.372  0.0620 -1.7371  0.0289
  829SOL    MW4 3321   1.756   1.653   1.459 -0.2000 -0.2485  0.0647
  830SOL     OW 3322   1.769   1.921   1.581  0.1688  0.8165 -0.4386
  830SOL    HW2 3323   1.769   1.840   1.530 -1.3537  0.4386  0.1224
  830SOL    HW3 3324   1.702   1.976   1.540 -2.3381 -0.1785  2.1165
  830SOL    MW4 3325   1.760   1.917   1.569 -0.3629  0.6353 -0.0274
  831SOL     OW 3326   1.983   2.059   1.468 -0.5896  0.2428 -0.4046
  831SOL    HW2 3327   2.064   2.017   1.496 -0.7063  1.1232  1.3458
  831SOL    HW3 3328   1.914   2.003   1.502 -0.7256  0.9145  0.4486
  831SOL    MW4 3329   1.985   2.046   1.476 -0.6230  0.4476 -0.0611
  832SOL     OW 3330   2.012   2.315   1.569 -0.6861  0.1691  0.3594
  832SOL    HW2 3331   1.998   2.298   1.662  0.7123  0.8930  0.7072
  832SOL    HW3 3332   2.002   2.229   1.527 -0.2989 -0.3401  1.2968
  832SOL    MW4 3333   2.009   2.301   1.575 -0.4505  0.1974  0.5290
  833SOL     OW 3334   1.798   2.468   1.465  0.1037 -0.1831  0.3513
  833SOL    HW2 3335   1.883   2.436   1.493  0.5206  0.4938 -0.1258
  833SOL    HW3 3336   1.803   2.470   1.369 -0.1398  0.6821  0.3500
  833SOL    MW4 3337   1.810   2.464   1.456  0.1266  0.0204  0.2882
  834SOL     OW 3338   1.784   2.721   1.592  0.2347  0.1901  0.1655
  834SOL    HW2 3339   1.858   2.770   1.556 -1.8759  1.6117 -2.4363
  834SOL    HW3 3340   1.789   2.635   1.550 -0.2350  0.6899 -0.9396
  834SOL    MW4 3341   1.794   2.716   1.582 -0.1057  0.4436 -0.3236
  835SOL     OW 3342   1.996   2.846   1.482  0.4539 -0.0204  0.0018
  835SOL    HW2 3343   1.986   2.935   1.518  0.1719 -0.0701  0.0425
  835SOL    HW3 3344   2.010   2.860   1.388  0.7206  0.0843  0.0561
  835SOL    MW4 3345   1.997   2.860   1.474  0.4519 -0.0132  0.0143
  836SOL     OW 3346   2.013   3.102   1.599 -0.3109  0.2663 -0.1905
  836SOL    HW2 3347   2.029   3.109   1.693 -0.9259 -0.6255 -0.0069
  836SOL    HW3 3348   2.089   3.143   1.559  0.9519 -1.1588  0.6854
  836SOL    MW4 3349   2.025   3.108   1.606 -0.2255 -0.0394 -0.0507
  837SOL     OW 3350   1.772   3.229   1.516  0.1958 -0.2612  0.2380
  837SOL    HW2 3351   1.781   3.323   1.529  0.6403 -0.2635 -0.0422
  837SOL    HW3 3352   1.843   3.190   1.567 -0.2191 -0.4694  0.6640
  837SOL    MW4 3353   1.783   3.236   1.525  0.1997 -0.2890  0.2572
  838SOL     OW 3354   1.800   3.489   1.582  0.6024  0.1387  0.0960
  838SOL    HW2 3355   1.790   3.484   1.678  1.0317 -0.3636  0.1155
  838SOL    HW3 3356   1.724   3.539   1.553  0.0991 -0.3079  0.6328
  838SOL    MW4 3357   1.789   3.495   1.591  0.5926  0.0135  0.1694
  839SOL     OW 3358   2.020   3.651   1.505  0.7542 -0.1066  0.1119
  839SOL    HW2 3359   2.095   3.595   1.525  0.2260 -1.1082 -0.6634
  839SOL    HW3 3360   1.944   3.604   1.541  0.2557 -0.1200 -0.9329
  839SOL    MW4 3361   2.020   3.638   1.513  0.6188 -0.2405 -0.1283
  840SOL     OW 3362   2.069   3.925   1.586  0.4357 -0.0828  0.3854
  840SOL    HW2 3363   2.139   3.970   1.539  0.4127 -1.5276 -1.0974
  840SOL    HW3 3364   2.075   3.834   1.556 -1.7421 -0.3364  0.6203
  840SOL    MW4 3365   2.079   3.919   1.576  0.1453 -0.3069  0.2207
  841SOL     OW 3366   1.833   4.031   1.473  0.3062  0.0653 -0.0624
  841SOL    HW2 3367   1.915   3.991   1.499  0.1803  0.1909  0.5269
  841SOL    HW3 3368   1.766   3.979   1.517  0.0653 -0.0616 -0.5697
  841SOL    MW4 3369   1.835   4.018   1.482  0.2578  0.0651 -0.0516
  842SOL     OW 3370   1.847   4.273   1.637  0.0273  0.3160 -0.0854
  842SOL    HW2 3371   1.897   4.339   1.591  1.1263  0.1941  0.8956
  842SOL    HW3 3372   1.850   4.196   1.580 -0.1065  0.6936 -0.6043
  842SOL    MW4 3373   1.854   4.271   1.624  0.1547  0.3497 -0.0244
  843SOL     OW 3374   2.026   4.450   1.506  0.7829 -0.4465  0.5526
  843SOL    HW2 3375   2.112   4.418   1.532  1.0091 -0.0765  0.2672
  843SOL    HW3 3376   2.016   4.533   1.553  0.2281 -0.9017  1.2392
  843SOL    MW4 3377   2.036   4.457   1.516  0.7396 -0.4577  0.6055
  844SOL     OW 3378   2.492   4.629   1.608 -0.2645 -0.4736 -0.0532
  844SOL    HW2 3379   2.475   4.622   1.702  2.0342  2.1391  0.6440
  844SOL    HW3 3380   2.416   4.677   1.574  0.0158  0.7085  0.9238
  844SOL    MW4 3381   2.480   4.635   1.616  0.0758  0.0271  0.1677
  845SOL     OW 3382   2.258   0.115   1.507  0.0894  0.2849  0.1328
  845SOL    HW2 3383   2.170   0.082   1.523 -0.0779  0.7685  0.2203
  845SOL    HW3 3384   2.262   0.129   1.413  0.3910 -0.6302  0.0060
  845SOL    MW4 3385   2.247   0.113   1.497  0.1071  0.2280  0.1276
  846SOL     OW 3386   2.239   0.387   1.574  0.3076  0.6202 -0.3235
  846SOL    HW2 3387   2.251   0.396   1.669  0.2794 -0.6018 -0.1951
  846SOL    HW3 3388   2.230   0.293   1.560 -0.1918  0.8339 -1.4858
  846SOL    MW4 3389   2.240   0.376   1.585  0.2380  0.4872 -0.4599
  847SOL     OW 3390   2.466   0.521   1.478 -0.2109  0.1977 -0.6156
  847SOL    HW2 3391   2.532   0.486   1.538  0.6002 -0.5285 -1.9193
  847SOL    HW3 3392   2.386   0.473   1.501  0.2862 -0.6551 -0.6640
  847SOL    MW4 3393   2.464   0.510   1.489 -0.0383 -0.0106 -0.7940
  848SOL     OW 3394   2.476   0.753   1.633 -0.1363 -0.0793 -0.2964
  848SOL    HW2 3395   2.411   0.815   1.602  0.9649  1.0411 -0.4034
  848SOL    HW3 3396   2.460   0.674   1.581 -1.7699 -0.0067  0.0896
  848SOL    MW4 3397   2.465   0.751   1.622 -0.2066  0.0781 -0.2596
  849SOL     OW 3398   2.261   0.911   1.553  0.2193 -0.2002  0.0973
  849SOL    HW2 3399   2.248   1.006   1.559  1.5721 -0.0891  1.8081
  849SOL    HW3 3400   2.247   0.891   1.460 -0.5294  1.5978 -0.2045
  849SOL    MW4 3401   2.258   0.921   1.541  0.2990  0.0517  0.2832
  850SOL     OW 3402   2.267   1.186   1.592  0.2182  0.1820  0.2382
  850SOL    HW2 3403   2.259   1.174   1.686  0.8509 -1.4988  0.0923
  850SOL    HW3 3404   2.186   1.231   1.567  0.0187  0.5913  1.5590
  850SOL    MW4 3405   2.255   1.190   1.601  0.2754  0.0143  0.3932
  851SOL     OW 3406   2.503   1.248   1.464 -0.1556 -0.0649  0.7239
  851SOL    HW2 3407   2.420   1.215   1.500 -1.3421  1.8066 -0.2034
  851SOL    HW3 3408   2.488   1.252   1.369  0.8940  0.5756  0.5796
  851SOL    MW4 3409   2.490   1.244   1.456 -0.1737  0.2666  0.5825
  852SOL     OW 3410   2.489   1.522   1.599 -0.0305  0.1009 -0.6851
  852SOL    HW2 3411   2.564   1.563   1.556 -0.6005  1.5036 -0.3585
  852SOL    HW3 3412   2.471   1.445   1.546  2.8627 -1.3578  0.3208
  852SOL    MW4 3413   2.497   1.517   1.586  0.2760  0.0935 -0.5093
  853SOL     OW 3414   2.272   1.695   1.469 -0.1572 -0.0404 -0.5300
  853SOL    HW2 3415   2.330   1.632   1.511 -0.5055  0.0768  0.1247
  853SOL    HW3 3416   2.261   1.662   1.380 -1.0104 -1.3694  0.0436
  853SOL    MW4 3417   2.278   1.682   1.463 -0.3157 -0.2003 -0.3679
  854SOL     OW 3418   2.231   1.950   1.548  0.6800 -0.1260 -0.2358
  854SOL    HW2 3419   2.243   1.934   1.642  2.1757  0.5825 -0.2940
  854SOL    HW3 3420   2.243   1.865   1.507 -0.7786 -0.5960  0.2674
  854SOL    MW4 3421   2.234   1.937   1.555  0.6849 -0.0945 -0.1771
  855SOL     OW 3422   2.466   2.079   1.469 -0.3360  0.2723 -0.4048
  855SOL    HW2 3423   2.389   2.032   1.501 -0.9116  0.7070 -1.1306
  855SOL    HW3 3424   2.464   2.068   1.374  0.5930  0.1504 -0.4166
  855SOL    MW4 3425   2.455   2.071   1.461 -0.2893  0.3135 -0.5021
  856SOL     OW 3426   2.490   2.356   1.580 -0.2964 -0.0905  0.2910
  856SOL    HW2 3427   2.492   2.336   1.673  0.9132 -0.5121  0.1867
  856SOL    HW3 3428   2.453   2.277   1.539  1.9223 -1.0719  0.1423
  856SOL    MW4 3429   2.485   2.343   1.587  0.1559 -0.2756  0.2576
  857SOL     OW 3430   2.243   2.481   1.495 -0.2398  0.1490  0.2152
  857SOL    HW2 3431   2.320   2.438   1.532 -1.3023 -2.0330  0.0059
  857SOL    HW3 3432   2.170   2.426   1.522 -1.8357  2.6046  1.0583
  857SOL    MW4 3433   2.244   2.468   1.503 -0.5905  0.1851  0.2988
  858SOL     OW 3434   2.226   2.732   1.603 -0.3510 -0.2876 -0.0698
  858SOL    HW2 3435   2.226   2.642   1.570  1.0045  0.0487 -1.0484
  858SOL    HW3 3436   2.153   2.774   1.557  0.1517 -0.4186 -1.0191
  858SOL    MW4 3437   2.217   2.726   1.592 -0.1058 -0.2605 -0.3241
  859SOL     OW 3438   2.431   2.854   1.473 -0.0305 -0.0307 -0.4766
  859SOL    HW2 3439   2.454   2.940   1.506  0.5289 -0.2993 -0.1549
  859SOL    HW3 3440   2.355   2.827   1.524 -0.1493  0.2362 -0.5156
  859SOL    MW4 3441   2.424   2.862   1.484  0.0276 -0.0309 -0.4393
  860SOL     OW 3442   2.481   3.104   1.609 -0.6453 -0.1918 -0.0685
  860SOL    HW2 3443   2.559   3.134   1.562  0.2237 -0.4538  1.1723
  860SOL    HW3 3444   2.407   3.140   1.560  0.2116 -1.0680 -2.0628
  860SOL    MW4 3445   2.482   3.112   1.596 -0.4176 -0.3420 -0.1679
  861SOL     OW 3446   2.238   3.226   1.502 -0.1724 -0.0828  0.4029
  861SOL    HW2 3447   2.224   3.314   1.536  0.0855 -0.1278  0.6258
  861SOL    HW3 3448   2.251   3.238   1.408  0.3969  0.1661  0.5163
  861SOL    MW4 3449   2.238   3.239   1.494 -0.0633 -0.0559  0.4472
  862SOL     OW 3450   2.203   3.476   1.604 -0.4467  0.1509 -0.1812
  862SOL    HW2 3451   2.221   3.479   1.698 -0.7026  0.7959 -0.1512
  862SOL    HW3 3452   2.285   3.505   1.563  0.0805 -1.3310 -0.2072
  862SOL    MW4 3453   2.216   3.480   1.611 -0.4109  0.0405 -0.1806
  863SOL     OW 3454   2.427   3.593   1.499 -0.3368  0.1639 -0.3269
  863SOL    HW2 3455   2.502   3.540   1.523 -0.0303  0.2548 -1.0720
  863SOL    HW3 3456   2.457   3.683   1.507 -0.1247  0.1912 -1.3729
  863SOL    MW4 3457   2.441   3.598   1.503 -0.2683  0.1795 -0.5632
  864SOL     OW 3458   2.484   3.866   1.540  0.1467  0.0285 -0.7096
  864SOL    HW2 3459   2.470   3.878   1.634 -0.3209  1.8159 -0.9802
  864SOL    HW3 3460   2.557   3.924   1.519  0.8566 -1.0569 -1.2972
  864SOL    MW4 3461   2.492   3.875   1.550  0.1787  0.1211 -0.8228
  865SOL     OW 3462   2.279   4.047   1.458  0.1244 -0.1800  0.0105
  865SOL    HW2 3463   2.353   3.988   1.471  1.2519  1.3006  0.3300
  865SOL    HW3 3464   2.261   4.042   1.364  3.0600  2.3195 -0.7342
  865SOL    MW4 3465   2.286   4.038   1.447  0.6604  0.3451 -0.0456
  866SOL     OW 3466   2.254   4.307   1.571  0.2555  0.1083  0.0739
  866SOL    HW2 3467   2.343   4.331   1.547  0.3313  1.2890  1.4960
  866SOL    HW3 3468   2.251   4.212   1.560  1.8518 -0.0052  0.5512
  866SOL    MW4 3469   2.265   4.298   1.566  0.4761  0.2491  0.3245
  867SOL     OW 3470   2.516   4.368   1.489 -0.3031 -0.8471  0.2168
  867SOL    HW2 3471   2.509   4.454   1.531 -0.4013 -0.6972 -0.1071
  867SOL    HW3 3472   2.490   4.383   1.398  0.3146 -1.0803 -0.0079
  867SOL    MW4 3473   2.512   4.381   1.482 -0.2346 -0.8581  0.1444
  868SOL     OW 3474   2.893   4.640   1.594 -0.1863  0.4299  0.0286
  868SOL    HW2 3475   2.889   4.642   1.690 -0.4801  0.9024  0.0112
  868SOL    HW3 3476   2.822   4.698   1.566 -0.0090  0.4079 -0.4728
  868SOL    MW4 3477   2.883   4.648   1.603 -0.2017  0.4894 -0.0398
  869SOL     OW 3478   2.691   0.133   1.500  0.0215 -0.2042  0.2527
  869SOL    HW2 3479   2.673   0.220   1.535 -0.3166 -0.0907 -0.1915
  869SOL    HW3 3480   2.624   0.077   1.540  1.3192 -0.5975  1.8915
  869SOL    MW4 3481   2.680   0.137   1.510  0.1481 -0.2411  0.4103
  870SOL     OW 3482   2.676   0.403   1.598  0.5005 -0.0171 -0.6149
  870SOL    HW2 3483   2.697   0.400   1.691  0.8018 -0.0851 -0.6869
  870SOL    HW3 3484   2.750   0.447   1.557  0.8241 -0.8741 -0.9537
  870SOL    MW4 3485   2.688   0.408   1.605  0.5830 -0.1391 -0.6691
  871SOL     OW 3486   2.927   0.518   1.493  0.0702 -0.4474  0.1868
  871SOL    HW2 3487   2.946   0.605   1.528 -0.8279  0.1055 -0.6770
  871SOL    HW3 3488   2.948   0.524   1.400  1.5312 -1.6254  0.4157
  871SOL    MW4 3489   2.932   0.530   1.485  0.1444 -0.5299  0.1030
  872SOL     OW 3490   2.942   0.776   1.586 -0.2025 -0.1139 -0.3674
  872SOL    HW2 3491   2.957   0.761   1.679 -1.0146 -0.9121 -0.3657
  872SOL    HW3 3492   2.861   0.826   1.582 -0.6858 -0.9113 -0.6936
  872SOL    MW4 3493   2.933   0.781   1.597 -0.3734 -0.3244 -0.4102
  873SOL     OW 3494   2.702   0.910   1.571 -0.0442 -0.2378 -0.1468
  873SOL    HW2 3495   2.629   0.857   1.603 -0.7874  0.3514 -0.8623
  873SOL    HW3 3496   2.682   0.927   1.479  0.1536  1.3394  0.0925
  873SOL    MW4 3497   2.690   0.905   1.563 -0.1161  0.0480 -0.2096
  874SOL     OW 3498   2.703   1.169   1.639  0.0303 -0.2835 -0.3842
  874SOL    HW2 3499   2.694   1.075   1.624  0.2129 -0.1078 -1.6185
  874SOL    HW3 3500   2.635   1.209   1.585  0.5863  0.3556 -0.6162
  874SOL    MW4 3501   2.693   1.162   1.630  0.1277 -0.1760 -0.5777
  875SOL     OW 3502   2.949   1.270   1.510  0.0154  0.2806 -0.2497
  875SOL    HW2 3503   3.026   1.224   1.544 -0.7957 -0.5962  0.4189
  875SOL    HW3 3504   2.876   1.234   1.560 -0.7554  1.5668 -0.4403
  875SOL    MW4 3505   2.949   1.259   1.521 -0.1933  0.3346 -0.1866
  876SOL     OW 3506   2.941   1.529   1.593 -0.2795 -0.2712  0.1050
  876SOL    HW2 3507   2.858   1.564   1.561  0.1547  0.0107 -0.7320
  876SOL    HW3 3508   2.938   1.436   1.570 -0.7331 -0.4474  0.8620
  876SOL    MW4 3509   2.929   1.521   1.585 -0.2821 -0.2573  0.0944
  877SOL     OW 3510   2.724   1.663   1.502 -0.0732  0.2132 -0.3215
  877SOL    HW2 3511   2.718   1.758   1.511 -1.2837  0.2045 -0.8105
  877SOL    HW3 3512   2.698   1.647   1.411  0.1789 -0.5728 -0.2539
  877SOL    MW4 3513   2.720   1.674   1.491 -0.1996  0.1083 -0.3771
  878SOL     OW 3514   2.674   1.924   1.553 -0.1165 -0.1334  0.1640
  878SOL    HW2 3515   2.674   1.915   1.648 -0.1811 -0.1845  0.1589
  878SOL    HW3 3516   2.605   1.988   1.534  0.9984  1.1232  0.2702
  878SOL    MW4 3517   2.665   1.931   1.563  0.0221  0.0256  0.1773
  879SOL     OW 3518   2.917   2.055   1.478  0.3326 -0.6241 -0.0726
  879SOL    HW2 3519   2.921   2.145   1.509  1.4548 -0.4058 -0.8134
  879SOL    HW3 3520   2.838   2.019   1.517 -0.6601  0.9912 -0.5589
  879SOL    MW4 3521   2.907   2.062   1.487  0.3497 -0.3822 -0.2345
  880SOL     OW 3522   2.902   2.319   1.595  0.0792  0.6048  0.2029
  880SOL    HW2 3523   2.901   2.303   1.689  0.5877 -0.1512  0.0819
  880SOL    HW3 3524   2.838   2.390   1.582 -0.5111  0.2322  1.0249
  880SOL    MW4 3525   2.893   2.326   1.605  0.0684  0.4559  0.2954
  881SOL     OW 3526   2.700   2.487   1.476  0.0964 -0.3586 -0.0269
  881SOL    HW2 3527   2.691   2.578   1.504  0.1158 -0.7473  1.2902
  881SOL    HW3 3528   2.629   2.441   1.520  0.8074 -1.1865  0.2744
  881SOL    MW4 3529   2.689   2.493   1.486  0.1928 -0.5191  0.1867
  882SOL     OW 3530   2.664   2.740   1.580  0.0521 -0.1984 -0.3214
  882SOL    HW2 3531   2.736   2.789   1.540  0.6062 -0.6058  0.1704
  882SOL    HW3 3532   2.585   2.782   1.546  0.5174  0.0218 -1.1605
  882SOL    MW4 3533   2.663   2.752   1.570  0.1866 -0.2231 -0.3672
  883SOL     OW 3534   2.918   2.835   1.440  0.0933  0.3778 -0.2350
  883SOL    HW2 3535   2.986   2.795   1.494 -0.2288  1.4865  1.0117
  883SOL    HW3 3536   2.896   2.916   1.486  0.4000  1.7499 -2.4896
  883SOL    MW4 3537   2.924   2.840   1.454  0.0913  0.7051 -0.3680
  884SOL     OW 3538   2.930   3.089   1.578  0.1022  0.0499 -0.0640
  884SOL    HW2 3539   2.932   3.088   1.674 -0.1733  1.1878 -0.0452
  884SOL    HW3 3540   2.990   3.159   1.554 -0.3271  0.1959 -0.7110
  884SOL    MW4 3541   2.938   3.098   1.588  0.0092  0.2193 -0.1469
  885SOL     OW 3542   2.709   3.203   1.485  0.3933  0.0004 -0.0237
  885SOL    HW2 3543   2.783   3.156   1.523  0.1309  0.7249  1.4133
  885SOL    HW3 3544   2.724   3.198   1.390  1.7525 -0.7014  0.2098
  885SOL    MW4 3545   2.721   3.196   1.477  0.5380  0.0034  0.1967
  886SOL     OW 3546   2.692   3.481   1.553  0.7791 -0.4971 -0.0909
  886SOL    HW2 3547   2.679   3.477   1.648 -2.0120  0.8481 -0.3460
  886SOL    HW3 3548   2.701   3.390   1.525  1.5675 -0.9025  1.4351
  886SOL    MW4 3549   2.692   3.469   1.562  0.5148 -0.3731  0.0768
  887SOL     OW 3550   2.921   3.628   1.463 -1.0059  0.3639  0.4539
  887SOL    HW2 3551   2.845   3.577   1.489 -1.7522  1.9461  1.4478
  887SOL    HW3 3552   2.912   3.638   1.368 -0.8001 -1.3925  0.2286
  887SOL    MW4 3553   2.910   3.622   1.454 -1.0772  0.3409  0.5553
  888SOL     OW 3554   2.913   3.878   1.557  0.0594 -0.1044  0.3595
  888SOL    HW2 3555   2.830   3.920   1.534  0.6552  0.1636 -1.3349
  888SOL    HW3 3556   2.908   3.791   1.518  1.7926  0.9707 -2.4243
  888SOL    MW4 3557   2.901   3.872   1.549  0.3667  0.0728 -0.2314
  889SOL     OW 3558   2.700   4.019   1.464 -0.1328 -0.3113 -0.0362
  889SOL    HW2 3559   2.704   4.107   1.501 -2.3642 -0.1671 -0.0752
  889SOL    HW3 3560   2.709   4.032   1.370 -3.5243  0.2290 -0.3548
  889SOL    MW4 3561   2.702   4.032   1.457 -0.8746 -0.2210 -0.0834
  890SOL     OW 3562   2.728   4.244   1.623 -0.4162 -0.2531  0.5151
  890SOL    HW2 3563   2.808   4.284   1.591 -0.5418 -2.1335 -2.4025
  890SOL    HW3 3564   2.658   4.285   1.571 -0.7548 -2.4306 -0.8592
  890SOL    MW4 3565   2.729   4.255   1.612 -0.4775 -0.7885 -0.0511
  891SOL     OW 3566   2.924   4.381   1.488 -0.3243 -0.0477  0.1596
  891SOL    HW2 3567   2.912   4.474   1.506  0.3757  0.2092 -0.6349
  891SOL    HW3 3568   2.912   4.373   1.393 -3.1521 -1.2301  0.5738
  891SOL    MW4 3569   2.921   4.392   1.478 -0.6051 -0.1698  0.1094
  892SOL     OW 3570   3.348   0.025   1.621  0.1919  0.2278 -0.3580
  892SOL    HW2 3571   3.431   0.060   1.589  0.0835 -0.5168 -1.4916
  892SOL    HW3 3572   3.337  -0.058   1.574 -0.8909  0.0271  0.2325
  892SOL    MW4 3573   3.357   0.019   1.610  0.0348  0.1031 -0.4297
  893SOL     OW 3574   3.101   0.140   1.539 -0.3132 -0.1714  0.3100
  893SOL    HW2 3575   3.178   0.098   1.576 -0.8786 -2.3201 -0.8269
  893SOL    HW3 3576   3.028   0.082   1.565 -1.2630  0.7132 -0.3539
  893SOL    MW4 3577   3.101   0.127   1.547 -0.5131 -0.3382  0.0724
  894SOL     OW 3578   3.132   0.396   1.613  0.3460 -0.4544 -1.0748
  894SOL    HW2 3579   3.125   0.302   1.597  0.0854 -0.8688  1.2922
  894SOL    HW3 3580   3.051   0.433   1.577 -0.3232 -1.3552 -0.5043
  894SOL    MW4 3581   3.120   0.388   1.606  0.2233 -0.6279 -0.6872
  895SOL     OW 3582   3.365   0.488   1.486  0.5302  0.5335 -0.2914
  895SOL    HW2 3583   3.279   0.452   1.509  0.2131  1.3087 -0.2410
  895SOL    HW3 3584   3.364   0.491   1.390  0.6540  0.1803 -0.3048
  895SOL    MW4 3585   3.353   0.484   1.476  0.5047  0.5891 -0.2865
  896SOL     OW 3586   3.362   0.773   1.602 -0.0623 -0.6431  0.3448
  896SOL    HW2 3587   3.364   0.751   1.695 -1.0903 -1.7072  0.1210
  896SOL    HW3 3588   3.355   0.689   1.557  2.2742 -0.2648 -0.7816
  896SOL    MW4 3589   3.361   0.759   1.608  0.1103 -0.7336  0.1666
  897SOL     OW 3590   3.140   0.895   1.451 -0.0744 -0.1962  0.5746
  897SOL    HW2 3591   3.217   0.872   1.502  1.3940  1.9398 -0.6280
  897SOL    HW3 3592   3.068   0.848   1.494  1.6384 -1.0440  2.5892
  897SOL    MW4 3593   3.141   0.886   1.464  0.3453 -0.0262  0.6817
  898SOL     OW 3594   3.149   1.108   1.624  0.0502 -0.3645 -0.0137
  898SOL    HW2 3595   3.137   1.076   1.713  0.3044 -0.8028 -0.1358
  898SOL    HW3 3596   3.152   1.029   1.570  1.0996 -0.1693 -0.2607
  898SOL    MW4 3597   3.148   1.093   1.629  0.2222 -0.3966 -0.0624
  899SOL     OW 3598   3.351   1.270   1.516 -0.1993 -0.0552 -0.0909
  899SOL    HW2 3599   3.421   1.226   1.566  0.1381 -1.8648 -2.0982
  899SOL    HW3 3600   3.270   1.232   1.549 -0.1394  0.6035  0.8420
  899SOL    MW4 3601   3.350   1.259   1.527 -0.1469 -0.2071 -0.2326
  900SOL     OW 3602   3.373   1.528   1.594  0.2019  0.1624 -0.0586
  900SOL    HW2 3603   3.363   1.534   1.689 -1.8150 -1.7871 -0.0888
  900SOL    HW3 3604   3.371   1.434   1.576  1.7095  0.4690 -1.9382
  900SOL    MW4 3605   3.371   1.516   1.604  0.1347 -0.0544 -0.3105
  901SOL     OW 3606   3.169   1.668   1.500 -0.0110 -0.1171  0.0143
  901SOL    HW2 3607   3.240   1.622   1.543 -0.7116  0.0540  1.3836
  901SOL    HW3 3608   3.090   1.623   1.529 -0.6507  1.4608  0.7688
  901SOL    MW4 3609   3.168   1.656   1.509 -0.1878  0.1136  0.2945
  902SOL     OW 3610   3.173   1.934   1.572 -0.2811 -0.3330  0.1681
  902SOL    HW2 3611   3.174   1.847   1.531  0.3671 -0.3911  0.2991
  902SOL    HW3 3612   3.095   1.976   1.536 -0.8957 -1.1583  0.4983
  902SOL    MW4 3613   3.163   1.928   1.562 -0.2767 -0.4496  0.2290
  903SOL     OW 3614   3.419   2.046   1.498  0.1609 -0.1483 -0.0720
  903SOL    HW2 3615   3.335   2.005   1.520 -0.1332  0.1774 -0.5771
  903SOL    HW3 3616   3.415   2.059   1.404  1.0576 -0.7295 -0.1947
  903SOL    MW4 3617   3.407   2.042   1.489  0.2404 -0.1820 -0.1548
  904SOL     OW 3618   3.368   2.313   1.616 -0.0277 -0.0350 -0.1781
  904SOL    HW2 3619   3.452   2.339   1.577 -0.2606 -0.1266 -0.7349
  904SOL    HW3 3620   3.368   2.217   1.609 -1.1926  0.0914 -2.2676
  904SOL    MW4 3621   3.379   2.304   1.610 -0.2121 -0.0304 -0.5272
  905SOL     OW 3622   3.151   2.436   1.519 -0.2730  0.0738  0.5220
  905SOL    HW2 3623   3.229   2.393   1.554 -0.4860 -1.3683 -0.7233
  905SOL    HW3 3624   3.078   2.394   1.565 -0.4287 -0.2074  0.0227
  905SOL    MW4 3625   3.151   2.425   1.530 -0.3217 -0.1535  0.2918
  906SOL     OW 3626   3.111   2.707   1.587 -0.1283 -0.6108 -0.2125
  906SOL    HW2 3627   3.187   2.754   1.551 -0.7363  0.5056 -0.0494
  906SOL    HW3 3628   3.125   2.616   1.560  0.8771 -0.2856 -0.8401
  906SOL    MW4 3629   3.123   2.701   1.579 -0.0759 -0.4206 -0.2738
  907SOL     OW 3630   3.337   2.846   1.490  0.0310  0.1947 -0.0398
  907SOL    HW2 3631   3.321   2.940   1.494 -0.8742  0.0154  0.5822
  907SOL    HW3 3632   3.345   2.827   1.396  1.9540  1.1711 -0.0994
  907SOL    MW4 3633   3.336   2.856   1.478  0.1653  0.2999  0.0344
  908SOL     OW 3634   3.354   3.131   1.568  0.2832 -0.0615  0.3904
  908SOL    HW2 3635   3.362   3.107   1.660  0.4112 -0.2551  0.3292
  908SOL    HW3 3636   3.439   3.171   1.547 -0.0792  0.8455  0.6094
  908SOL    MW4 3637   3.366   3.133   1.577  0.2523  0.0326  0.4112
  909SOL     OW 3638   3.128   3.250   1.481 -0.5398 -0.1231 -0.2742
  909SOL    HW2 3639   3.210   3.211   1.511 -0.0988  0.5067 -0.6466
  909SOL    HW3 3640   3.128   3.239   1.386  0.0746  1.6630 -0.5096
  909SOL    MW4 3641   3.139   3.244   1.473 -0.4006  0.1956 -0.3544
  910SOL     OW 3642   3.150   3.511   1.603  0.2150  0.1610  0.0811
  910SOL    HW2 3643   3.135   3.420   1.577  0.6737  0.3828 -0.9971
  910SOL    HW3 3644   3.084   3.561   1.556  0.8007  0.5258 -0.3637
  910SOL    MW4 3645   3.139   3.506   1.594  0.3528  0.2384 -0.1198
  911SOL     OW 3646   3.375   3.605   1.495 -0.0290  0.3294 -0.7847
  911SOL    HW2 3647   3.446   3.545   1.516  0.5900  0.7208 -1.7288
  911SOL    HW3 3648   3.299   3.569   1.541  0.6257 -0.4528 -0.2975
  911SOL    MW4 3649   3.374   3.592   1.504  0.1391  0.2778 -0.8449
  912SOL     OW 3650   3.419   3.863   1.558  0.1907  0.0747 -0.1025
  912SOL    HW2 3651   3.330   3.894   1.537 -0.7074 -1.3939  1.4439
  912SOL    HW3 3652   3.414   3.769   1.545  1.5535 -0.0002 -0.0562
  912SOL    MW4 3653   3.406   3.855   1.553  0.2520 -0.1289  0.1077
  913SOL     OW 3654   3.167   3.974   1.501  0.4392 -0.2701  0.1999
  913SOL    HW2 3655   3.178   4.051   1.557  2.0229 -0.1895 -0.2243
  913SOL    HW3 3656   3.075   3.949   1.514  0.7338 -0.1652  2.7261
  913SOL    MW4 3657   3.156   3.981   1.510  0.6870 -0.2456  0.4772
  914SOL     OW 3658   3.145   4.244   1.604 -0.3019  0.3136 -0.6761
  914SOL    HW2 3659   3.145   4.256   1.699  0.6698 -1.6361 -0.3984
  914SOL    HW3 3660   3.059   4.275   1.575 -0.9914 -0.0318  0.9624
  914SOL    MW4 3661   3.134   4.250   1.613 -0.2647  0.0108 -0.4233
  915SOL     OW 3662   3.350   4.428   1.532  0.3613  0.0042  0.3925
  915SOL    HW2 3663   3.283   4.364   1.554  0.3839 -0.0105  0.4188
  915SOL    HW3 3664   3.350   4.432   1.436 -0.3569  0.7259  0.4174
  915SOL    MW4 3665   3.341   4.420   1.522  0.2695  0.0975  0.3993
  916SOL     OW 3666   3.865   4.630   1.600 -0.6724 -0.1828  0.6336
  916SOL    HW2 3667   3.885   4.638   1.693  0.6214  1.2103  0.2573
  916SOL    HW3 3668   3.930   4.686   1.557 -1.9889  0.1046 -1.0158
  916SOL    MW4 3669   3.876   4.639   1.606 -0.6754  0.0389  0.3663
  917SOL     OW 3670   3.613   0.105   1.505  0.0963 -0.3887  0.4767
  917SOL    HW2 3671   3.681   0.050   1.544  2.1021  1.5631 -0.1077
  917SOL    HW3 3672   3.617   0.084   1.411  0.3022  0.1275  0.3666
  917SOL    MW4 3673   3.623   0.095   1.498  0.3881 -0.0630  0.3851
  918SOL     OW 3674   3.589   0.382   1.606 -0.0166 -0.1106 -0.3453
  918SOL    HW2 3675   3.594   0.291   1.578 -0.8999 -0.2358 -0.1296
  918SOL    HW3 3676   3.510   0.416   1.564 -0.1368  0.3225  0.2222
  918SOL    MW4 3677   3.579   0.375   1.597 -0.1490 -0.0700 -0.2420
  919SOL     OW 3678   3.857   0.475   1.531  0.1646 -0.3194 -0.2445
  919SOL    HW2 3679   3.789   0.415   1.559  0.2437 -0.1535  0.2994
  919SOL    HW3 3680   3.850   0.477   1.435 -0.2028 -0.7564 -0.2241
  919SOL    MW4 3681   3.847   0.468   1.522  0.1266 -0.3551 -0.1700
  920SOL     OW 3682   3.846   0.744   1.616 -0.0609  0.0285  0.3372
  920SOL    HW2 3683   3.769   0.782   1.574  0.9541  0.1848 -1.4447
  920SOL    HW3 3684   3.838   0.650   1.600 -0.0030  0.0226  0.3426
  920SOL    MW4 3685   3.835   0.737   1.608  0.0806  0.0483  0.1028
  921SOL     OW 3686   3.609   0.875   1.522  0.2501 -0.3142  0.4955
  921SOL    HW2 3687   3.526   0.838   1.553 -1.8670  2.9704 -0.9407
  921SOL    HW3 3688   3.605   0.869   1.427  1.1322  0.8609  0.3657
  921SOL    MW4 3689   3.598   0.869   1.514  0.0872  0.2742  0.2889
  922SOL     OW 3690   3.601   1.130   1.619 -0.1741 -0.0215  0.4262
  922SOL    HW2 3691   3.661   1.179   1.563 -0.6020 -0.8747 -0.7991
  922SOL    HW3 3692   3.606   1.040   1.588 -0.6964 -0.4504  1.5326
  922SOL    MW4 3693   3.610   1.125   1.608 -0.2995 -0.1906  0.4105
  923SOL     OW 3694   3.809   1.240   1.464 -0.6090  0.4095  0.4634
  923SOL    HW2 3695   3.873   1.181   1.504  0.5953  1.6059  0.3303
  923SOL    HW3 3696   3.827   1.325   1.502 -0.0405  1.3861 -1.9024
  923SOL    MW4 3697   3.820   1.243   1.474 -0.3751  0.6962  0.1337
  924SOL     OW 3698   3.849   1.487   1.597 -0.3136 -0.3597 -0.0802
  924SOL    HW2 3699   3.840   1.490   1.692  0.6447  1.4474 -0.0350
  924SOL    HW3 3700   3.778   1.542   1.564 -0.3460 -0.5918 -0.4042
  924SOL    MW4 3701   3.839   1.495   1.605 -0.1914 -0.1519 -0.1170
  925SOL     OW 3702   3.623   1.653   1.520  0.5938  0.0189 -0.0994
  925SOL    HW2 3703   3.540   1.623   1.557  0.5903  0.5642  0.3293
  925SOL    HW3 3704   3.610   1.647   1.426  0.5850 -1.3273 -0.0229
  925SOL    MW4 3705   3.610   1.648   1.513  0.5921 -0.0868 -0.0327
  926SOL     OW 3706   3.619   1.911   1.631  0.3676  0.1791  0.4171
  926SOL    HW2 3707   3.639   1.822   1.604 -2.6154 -1.2250  2.5720
  926SOL    HW3 3708   3.551   1.940   1.570 -0.2115  0.1492  1.0368
  926SOL    MW4 3709   3.613   1.903   1.620 -0.1024 -0.0101  0.7832
  927SOL     OW 3710   3.836   2.045   1.528  0.1628  0.2619 -0.1226
  927SOL    HW2 3711   3.836   2.136   1.554  0.8849 -0.2728  1.7913
  927SOL    HW3 3712   3.757   2.008   1.567  0.8760 -0.3717  0.7505
  927SOL    MW4 3713   3.825   2.052   1.536  0.3521  0.1078  0.2451
  928SOL     OW 3714   3.810   2.310   1.601 -0.2203  0.2944 -0.6443
  928SOL    HW2 3715   3.815   2.325   1.695 -0.6512 -0.0387 -0.5655
  928SOL    HW3 3716   3.886   2.355   1.565  0.3329 -0.1715 -0.0658
  928SOL    MW4 3717   3.820   2.318   1.608 -0.2042  0.1890 -0.5576
  929SOL     OW 3718   3.577   2.426   1.488  0.2090 -0.0837 -0.0586
  929SOL    HW2 3719   3.566   2.515   1.521 -0.8020 -0.6953  1.3142
  929SOL    HW3 3720   3.656   2.394   1.532 -0.2118 -0.3333  0.5243
  929SOL    MW4 3721   3.586   2.434   1.498  0.0201 -0.1973  0.1994
  930SOL     OW 3722   3.559   2.698   1.599 -0.1872 -0.1482 -0.0512
  930SOL    HW2 3723   3.559   2.711   1.694  0.9219 -1.5929  0.1550
  930SOL    HW3 3724   3.481   2.744   1.568  0.5792  2.1428  1.3176
  930SOL    MW4 3725   3.549   2.706   1.607  0.0603 -0.0366  0.1566
  931SOL     OW 3726   3.800   2.805   1.486 -0.2761 -0.1287 -0.2659
  931SOL    HW2 3727   3.872   2.758   1.528  0.9614  1.4006 -0.6432
  931SOL    HW3 3728   3.721   2.766   1.524  0.7612 -1.2430  0.7937
  931SOL    MW4 3729   3.799   2.794   1.497  0.0240 -0.0739 -0.1759
  932SOL     OW 3730   3.780   3.048   1.594  0.3384  0.1256  0.2255
  932SOL    HW2 3731   3.870   3.081   1.582  0.6956 -0.4357  1.2568
  932SOL    HW3 3732   3.783   2.959   1.560  0.3079 -0.0696  0.7314
  932SOL    MW4 3733   3.793   3.041   1.588  0.3815  0.0258  0.4283
  933SOL     OW 3734   3.598   3.216   1.446  0.2662  0.2878  0.3691
  933SOL    HW2 3735   3.664   3.163   1.492  0.2576  1.1014  1.3382
  933SOL    HW3 3736   3.605   3.189   1.355  0.2971 -1.3535  0.8316
  933SOL    MW4 3737   3.608   3.205   1.440  0.2691  0.1786  0.5580
  934SOL     OW 3738   3.588   3.443   1.587  0.0681 -0.0315  0.4606
  934SOL    HW2 3739   3.676   3.477   1.572  0.0054 -0.5331 -1.2559
  934SOL    HW3 3740   3.588   3.358   1.543 -1.1379 -0.2249  0.8148
  934SOL    MW4 3741   3.600   3.436   1.579 -0.0993 -0.1232  0.2808
  935SOL     OW 3742   3.825   3.567   1.522  0.4738  0.4055  0.1029
  935SOL    HW2 3743   3.900   3.519   1.558  0.6246  1.4558  1.2237
  935SOL    HW3 3744   3.829   3.653   1.564 -0.4263  1.0336 -1.0532
  935SOL    MW4 3745   3.835   3.572   1.532  0.3749  0.6269  0.0982
  936SOL     OW 3746   3.827   3.814   1.627  0.2878 -0.2568  0.1567
  936SOL    HW2 3747   3.898   3.848   1.572  0.2507  0.1641  0.3683
  936SOL    HW3 3748   3.750   3.865   1.603 -0.1799 -1.3771 -0.7710
  936SOL    MW4 3749   3.826   3.825   1.617  0.2212 -0.3491  0.0622
  937SOL     OW 3750   3.633   4.026   1.516  0.3522  0.1807  0.0642
  937SOL    HW2 3751   3.611   4.114   1.547  0.4593  0.3233 -0.2700
  937SOL    HW3 3752   3.554   3.974   1.533  0.4919  0.2009  0.8037
  937SOL    MW4 3753   3.619   4.030   1.523  0.3847  0.2022  0.1177
  938SOL     OW 3754   3.583   4.279   1.617  0.1173 -0.0484  0.3426
  938SOL    HW2 3755   3.572   4.263   1.710 -1.6419 -1.1079 -0.0355
  938SOL    HW3 3756   3.512   4.339   1.594  0.4455  0.0802 -0.3629
  938SOL    MW4 3757   3.572   4.285   1.626 -0.0715 -0.1713  0.1996
  939SOL     OW 3758   3.826   4.376   1.490 -0.4962  0.4822  0.0766
  939SOL    HW2 3759   3.752   4.334   1.534 -2.3675  2.0044 -1.5577
  939SOL    HW3 3760   3.838   4.459   1.536 -0.1169  0.4568  0.0244
  939SOL    MW4 3761   3.818   4.381   1.502 -0.6931  0.6797 -0.1459
  940SOL     OW 3762   4.302   4.631   1.622  0.3679 -0.1969  0.1438
  940SOL    HW2 3763   4.299   4.614   1.717 -2.0394 -0.9678 -0.0470
  940SOL    HW3 3764   4.303   4.544   1.582  1.4821  0.1268 -0.5481
  940SOL    MW4 3765   4.302   4.618   1.630  0.1973 -0.2559  0.0273
  941SOL     OW 3766   4.088   0.115   1.517 -0.1671 -0.0928  0.4100
  941SOL    HW2 3767   4.099   0.204   1.550 -0.7066  0.3971 -0.7002
  941SOL    HW3 3768   4.165   0.068   1.549  2.1420  1.7386 -2.1881
  941SOL    MW4 3769   4.100   0.121   1.526  0.0664  0.2135 -0.0793
  942SOL     OW 3770   4.088   0.373   1.630 -0.2010 -0.3068  0.3967
  942SOL    HW2 3771   4.064   0.365   1.722  0.0649  1.3812  0.6175
  942SOL    HW3 3772   4.014   0.419   1.590  0.5069  0.5839  0.1166
  942SOL    MW4 3773   4.075   0.378   1.637 -0.0726  0.0334  0.3889
  943SOL     OW 3774   4.303   0.480   1.511 -0.2915 -0.5084 -0.2630
  943SOL    HW2 3775   4.226   0.442   1.554  1.1855 -1.2773  1.7815
  943SOL    HW3 3776   4.378   0.440   1.556  1.3151  0.7587 -1.7374
  943SOL    MW4 3777   4.303   0.470   1.523  0.1153 -0.4426 -0.1878
  944SOL     OW 3778   4.284   0.718   1.635 -0.3938  0.1419 -0.7278
  944SOL    HW2 3779   4.303   0.629   1.604  0.8683  0.2736 -0.3797
  944SOL    HW3 3780   4.341   0.774   1.583  1.3502  0.4095  1.3763
  944SOL    MW4 3781   4.294   0.713   1.624  0.0028  0.1946 -0.4043
  945SOL     OW 3782   4.078   0.820   1.496 -0.0776  0.0957  0.3894
  945SOL    HW2 3783   4.152   0.784   1.545 -0.8584 -1.0237  0.7600
  945SOL    HW3 3784   4.001   0.788   1.542 -0.8309 -1.2670 -1.7292
  945SOL    MW4 3785   4.078   0.811   1.508 -0.2800 -0.2317  0.1588
  946SOL     OW 3786   4.034   1.120   1.586  0.3888 -0.1663  0.3070
  946SOL    HW2 3787   4.029   1.109   1.681 -0.4037  0.5175  0.3481
  946SOL    HW3 3788   4.079   1.041   1.556 -2.1255 -1.9304  0.9572
  946SOL    MW4 3789   4.039   1.108   1.595 -0.0475 -0.3089  0.3982
  947SOL     OW 3790   4.273   1.283   1.540  0.2638 -0.1692 -0.2244
  947SOL    HW2 3791   4.191   1.240   1.565  0.1852 -0.5782 -1.1373
  947SOL    HW3 3792   4.342   1.223   1.570  0.1435 -1.1994 -1.9272
  947SOL    MW4 3793   4.271   1.269   1.547  0.2376 -0.3591 -0.5695
  948SOL     OW 3794   4.287   1.560   1.612  0.4665 -0.0888 -0.6756
  948SOL    HW2 3795   4.273   1.473   1.574 -1.1213  0.4441 -1.3539
  948SOL    HW3 3796   4.368   1.591   1.572 -0.1268 -0.3584 -2.1276
  948SOL    MW4 3797   4.296   1.552   1.602  0.1787 -0.0541 -0.9567
  949SOL     OW 3798   4.047   1.666   1.545 -0.1105  0.7686 -0.3306
  949SOL    HW2 3799   4.133   1.634   1.573 -0.2591  0.4833 -0.1949
  949SOL    HW3 3800   3.987   1.595   1.568 -0.2945  0.7079 -0.9958
  949SOL    MW4 3801   4.051   1.652   1.552 -0.1544  0.7229 -0.4005
  950SOL     OW 3802   4.075   1.940   1.609  0.0335 -0.5070  0.3678
  950SOL    HW2 3803   4.048   1.850   1.590  0.0558 -0.0602 -1.9870
  950SOL    HW3 3804   4.004   1.994   1.574  0.3562  0.4227  1.1209
  950SOL    MW4 3805   4.062   1.935   1.602  0.0790 -0.3253  0.1565
  951SOL     OW 3806   4.311   2.052   1.511 -0.2427 -0.3896 -0.6249
  951SOL    HW2 3807   4.229   2.014   1.544 -0.2164 -0.4949 -0.6809
  951SOL    HW3 3808   4.295   2.064   1.417  0.2677 -1.6013 -0.8724
  951SOL    MW4 3809   4.298   2.049   1.503 -0.1719 -0.5633 -0.6649
  952SOL     OW 3810   4.294   2.318   1.641 -0.2619  0.0435 -0.3841
  952SOL    HW2 3811   4.277   2.305   1.734 -1.0211  1.6888 -0.2747
  952SOL    HW3 3812   4.275   2.233   1.601 -1.1969 -0.3166  0.7943
  952SOL    MW4 3813   4.289   2.305   1.648 -0.4855  0.2131 -0.2142
  953SOL     OW 3814   4.044   2.430   1.515  0.5225  0.1941  0.5590
  953SOL    HW2 3815   4.028   2.518   1.548  1.1065  0.4252  0.2442
  953SOL    HW3 3816   4.128   2.405   1.555  0.1994 -0.3482  0.9074
  953SOL    MW4 3817   4.053   2.438   1.525  0.5569  0.1530  0.5634
  954SOL     OW 3818   4.012   2.683   1.601 -0.0597  0.2512  0.2686
  954SOL    HW2 3819   4.016   2.691   1.696  1.8336 -0.0575  0.2301
  954SOL    HW3 3820   4.086   2.734   1.569  0.4673 -1.2317 -0.9495
  954SOL    MW4 3821   4.022   2.691   1.609  0.2597  0.0148  0.1028
  955SOL     OW 3822   4.236   2.815   1.519 -0.5140 -0.1915 -0.4961
  955SOL    HW2 3823   4.252   2.906   1.547  2.1823 -0.7436 -0.0839
  955SOL    HW3 3824   4.245   2.818   1.424  1.4924 -0.3628 -0.3241
  955SOL    MW4 3825   4.239   2.828   1.510  0.1065 -0.2870 -0.4190
  956SOL     OW 3826   4.280   3.081   1.612 -0.0406 -0.1534 -0.1752
  956SOL    HW2 3827   4.279   3.077   1.708 -1.0136 -0.0226 -0.1803
  956SOL    HW3 3828   4.334   3.158   1.592  0.1061 -0.1405  0.2706
  956SOL    MW4 3829   4.287   3.091   1.622 -0.1496 -0.1344 -0.1171
  957SOL     OW 3830   4.022   3.177   1.536 -0.5237 -0.2940 -0.2505
  957SOL    HW2 3831   4.032   3.267   1.565 -2.4551 -0.6410  1.6318
  957SOL    HW3 3832   4.103   3.133   1.563 -0.4540  0.3976  0.6591
  957SOL    MW4 3833   4.034   3.183   1.543 -0.7693 -0.2485  0.1179
  958SOL     OW 3834   4.057   3.439   1.591 -0.0063 -0.3400  0.2529
  958SOL    HW2 3835   4.061   3.451   1.685 -0.1680 -1.6904  0.4472
  958SOL    HW3 3836   4.138   3.477   1.558 -0.0028  0.2401  0.9143
  958SOL    MW4 3837   4.068   3.446   1.599 -0.0272 -0.4416  0.3658
  959SOL     OW 3838   4.262   3.609   1.527 -0.1435 -0.1543  0.2046
  959SOL    HW2 3839   4.246   3.693   1.570  0.3458 -0.4939  1.0576
  959SOL    HW3 3840   4.261   3.630   1.434  0.3497  0.8718  0.4187
  959SOL    MW4 3841   4.259   3.623   1.520 -0.0138 -0.0637  0.3454
  960SOL     OW 3842   4.267   3.869   1.604  0.0354  0.0244  0.2880
  960SOL    HW2 3843   4.193   3.914   1.563  0.9430  0.3475 -1.0403
  960SOL    HW3 3844   4.344   3.909   1.565  0.9079 -0.9735  0.9418
  960SOL    MW4 3845   4.267   3.880   1.594  0.2703 -0.0646  0.1990
  961SOL     OW 3846   4.006   3.959   1.471 -0.0288 -0.0408 -0.2835
  961SOL    HW2 3847   4.018   4.046   1.509  0.4516 -0.0153 -0.4953
  961SOL    HW3 3848   4.030   3.969   1.379 -0.3214 -0.3141 -0.3900
  961SOL    MW4 3849   4.011   3.972   1.464 -0.0040 -0.0735 -0.3255
  962SOL     OW 3850   4.034   4.211   1.591 -0.2204 -0.0749 -0.3076
  962SOL    HW2 3851   4.035   4.243   1.681 -1.3840 -1.9065  0.4048
  962SOL    HW3 3852   3.964   4.260   1.549 -0.8450 -0.4265  0.2955
  962SOL    MW4 3853   4.025   4.222   1.598 -0.4564 -0.3630 -0.1341
  963SOL     OW 3854   4.277   4.364   1.509 -0.5738  0.6849 -0.5252
  963SOL    HW2 3855   4.199   4.311   1.526  1.0284 -1.2340  1.0335
  963SOL    HW3 3856   4.293   4.352   1.415  0.4476 -2.6212  0.0092
  963SOL    MW4 3857   4.269   4.356   1.499 -0.2276 -0.0045 -0.2491
  964SOL     OW 3858   0.254   4.628   1.898 -0.1646  0.8833 -0.4740
  964SOL    HW2 3859   0.340   4.662   1.920  0.0742  0.2936 -0.4927
  964SOL    HW3 3860   0.252   4.625   1.803  0.5384 -0.9898 -0.4396
  964SOL    MW4 3861   0.265   4.632   1.889 -0.0403  0.5583 -0.4719
  965SOL     OW 3862   0.026   0.068   2.006 -0.1397 -0.4661 -0.0963
  965SOL    HW2 3863   0.024   0.158   1.974  1.5450  0.0590  1.1932
  965SOL    HW3 3864   0.107   0.031   1.971 -0.6010 -1.3390 -0.2634
  965SOL    MW4 3865   0.036   0.075   1.997  0.0217 -0.5120  0.0518
  966SOL     OW 3866   0.010   0.345   1.903  0.2595 -0.0165 -1.0883
  966SOL    HW2 3867  -0.070   0.385   1.936 -0.7104 -1.8934 -1.0914
  966SOL    HW3 3868   0.081   0.397   1.941 -0.9188  0.4641  0.4885
  966SOL    MW4 3869   0.009   0.357   1.912 -0.0239 -0.2008 -0.8807
  967SOL     OW 3870   0.200   0.515   1.979 -0.1904 -0.0050  0.1908
  967SOL    HW2 3871   0.272   0.468   1.937 -0.0853  0.3597 -0.0345
  967SOL    HW3 3872   0.198   0.600   1.936 -1.4319 -0.3898 -0.5464
  967SOL    MW4 3873   0.209   0.520   1.968 -0.3403 -0.0077  0.0638
  968SOL     OW 3874   0.212   0.759   1.852 -0.4508  0.4597 -0.0608
  968SOL    HW2 3875   0.282   0.807   1.895  2.2955 -2.3873 -1.1378
  968SOL    HW3 3876   0.216   0.787   1.761 -0.8194  0.4060 -0.0944
  968SOL    MW4 3877   0.221   0.769   1.846 -0.1371  0.0770 -0.2073
  969SOL     OW 3878   4.486   0.890   1.991  0.3338 -0.0596 -0.0698
  969SOL    HW2 3879   4.405   0.852   1.960  0.4888  1.2726 -2.2223
  969SOL    HW3 3880   4.554   0.847   1.940  0.7199  1.0611 -0.5254
  969SOL    MW4 3881   4.485   0.879   1.980  0.4052  0.2641 -0.4139
  970SOL     OW 3882   0.006   1.165   1.889 -0.0004 -0.2442 -0.3485
  970SOL    HW2 3883  -0.074   1.211   1.916  0.3780 -0.3439  1.0084
  970SOL    HW3 3884  -0.007   1.076   1.920 -0.4295 -0.8938 -2.3629
  970SOL    MW4 3885  -0.006   1.160   1.897 -0.0071 -0.3430 -0.4353
  971SOL     OW 3886   0.242   1.294   1.967  0.0120  0.1193  0.3164
  971SOL    HW2 3887   0.247   1.368   1.906 -1.5989  1.7476  2.0737
  971SOL    HW3 3888   0.161   1.249   1.943  0.8674 -0.9434 -0.5945
  971SOL    MW4 3889   0.232   1.298   1.956 -0.0877  0.1939  0.4280
  972SOL     OW 3890   0.218   1.557   1.859  0.2461 -0.2264  0.0338
  972SOL    HW2 3891   0.293   1.605   1.895  0.8586 -2.1643  1.4706
  972SOL    HW3 3892   0.147   1.574   1.920 -0.4365  1.3777 -1.1744
  972SOL    MW4 3893   0.219   1.566   1.872  0.2369 -0.2705  0.0640
  973SOL     OW 3894   0.008   1.665   2.004  0.2153  0.4619  0.2713
  973SOL    HW2 3895   0.022   1.681   2.097 -0.9133  0.9154  0.3714
  973SOL    HW3 3896  -0.080   1.625   2.000  0.9524 -1.1464 -0.4345
  973SOL    MW4 3897  -0.002   1.662   2.016  0.1636  0.3095  0.1914
  974SOL     OW 3898   0.046   1.914   1.886  0.3238 -0.0859  0.2463
  974SOL    HW2 3899  -0.032   1.961   1.915  1.4140  0.9261  1.6171
  974SOL    HW3 3900   0.037   1.827   1.925  0.2544  0.2773  1.0490
  974SOL    MW4 3901   0.035   1.909   1.895  0.4585  0.0955  0.5331
  975SOL     OW 3902   0.244   2.066   2.013  0.1572 -0.6732 -0.0743
  975SOL    HW2 3903   0.261   2.134   1.947  0.0712  0.7300  1.3230
  975SOL    HW3 3904   0.172   2.015   1.976  0.0007  0.1939 -1.0051
  975SOL    MW4 3905   0.237   2.068   1.999  0.1252 -0.3736 -0.0128
  976SOL     OW 3906   0.261   2.304   1.841  0.1029 -0.1304 -0.2897
  976SOL    HW2 3907   0.333   2.356   1.877  0.7459 -0.4068 -1.1649
  976SOL    HW3 3908   0.183   2.340   1.882  0.8831 -0.9327  1.9954
  976SOL    MW4 3909   0.261   2.315   1.851  0.2907 -0.2728 -0.1037
  977SOL     OW 3910   0.029   2.413   1.945  0.0123  0.2037 -0.2652
  977SOL    HW2 3911   0.036   2.421   2.040  0.7584 -0.2749 -0.2812
  977SOL    HW3 3912   0.005   2.502   1.915 -1.2075  0.1316  0.4465
  977SOL    MW4 3913   0.027   2.426   1.953 -0.0502  0.1310 -0.1734
  978SOL     OW 3914   4.485   2.679   1.859 -0.2136  0.2603  0.1872
  978SOL    HW2 3915   4.402   2.721   1.881 -0.9108 -1.0139  0.0407
  978SOL    HW3 3916   4.484   2.674   1.763  0.3036  0.7842  0.1552
  978SOL    MW4 3917   4.474   2.684   1.849 -0.2374  0.1613  0.1637
  979SOL     OW 3918   0.225   2.804   1.982 -0.1182  0.5614  0.1910
  979SOL    HW2 3919   0.210   2.894   1.954 -1.3030  0.0676 -0.8090
  979SOL    HW3 3920   0.157   2.753   1.938 -0.0021 -0.7048  1.4263
  979SOL    MW4 3921   0.214   2.809   1.973 -0.2592  0.3292  0.2220
  980SOL     OW 3922   0.212   3.076   1.864 -0.8261  0.2854  0.0671
  980SOL    HW2 3923   0.279   3.132   1.904 -0.0445  0.4699 -1.4860
  980SOL    HW3 3924   0.215   3.098   1.771 -3.2182  0.4807  0.0016
  980SOL    MW4 3925   0.221   3.087   1.857 -1.0386  0.3355 -0.1465
  981SOL     OW 3926   4.470   3.220   1.974  0.1322 -0.3365  0.0337
  981SOL    HW2 3927   4.397   3.172   1.934  0.3171 -0.9455  0.4117
  981SOL    HW3 3928   4.548   3.187   1.929  0.3010 -0.7203  0.5990
  981SOL    MW4 3929   4.471   3.209   1.963  0.1789 -0.4675  0.1582
  982SOL     OW 3930   4.475   3.514   1.883  0.9956 -0.1233  0.3549
  982SOL    HW2 3931   4.563   3.545   1.905  0.9531  0.8958 -0.8771
  982SOL    HW3 3932   4.474   3.424   1.915  1.7965  0.4948  2.1856
  982SOL    MW4 3933   4.487   3.506   1.890  1.0957  0.0927  0.4339
  983SOL     OW 3934   0.210   3.625   1.983 -0.1073 -0.0184 -0.6845
  983SOL    HW2 3935   0.214   3.634   2.078  0.2440  0.5745 -0.7527
  983SOL    HW3 3936   0.277   3.560   1.962  0.6143  0.7066 -0.6379
  983SOL    MW4 3937   0.219   3.618   1.993  0.0342  0.1555 -0.6873
  984SOL     OW 3938   0.230   3.890   1.886  0.2789 -0.2378 -0.0114
  984SOL    HW2 3939   0.298   3.932   1.938  0.3838 -0.3914 -0.0241
  984SOL    HW3 3940   0.227   3.800   1.918  0.1691 -0.2648 -0.0969
  984SOL    MW4 3941   0.239   3.884   1.897  0.2783 -0.2616 -0.0244
  985SOL     OW 3942   4.475   3.988   1.964  0.0474  0.6827 -0.0691
  985SOL    HW2 3943   4.463   4.079   1.935  0.2950 -0.2209 -3.2476
  985SOL    HW3 3944   4.551   3.958   1.914 -0.0766 -1.3024  0.9018
  985SOL    MW4 3945   4.484   3.996   1.954  0.0637  0.3015 -0.3604
  986SOL     OW 3946   0.019   4.240   1.841 -0.2387 -0.4959 -0.3899
  986SOL    HW2 3947  -0.048   4.272   1.902  0.2789  0.7127 -0.4335
  986SOL    HW3 3948   0.102   4.269   1.880  0.0542  0.8864 -2.0105
  986SOL    MW4 3949   0.021   4.248   1.855 -0.1318 -0.1541 -0.6095
  987SOL     OW 3950   0.242   4.352   1.963  0.0375  0.2701  0.0548
  987SOL    HW2 3951   0.227   4.355   2.058  2.3175  1.2125  0.4178
  987SOL    HW3 3952   0.242   4.443   1.935  0.5861  0.0647 -0.6441
  987SOL    MW4 3953   0.240   4.364   1.972  0.4107  0.3674  0.0105
  988SOL     OW 3954   0.673   0.002   1.870  0.3421 -0.0847 -0.0277
  988SOL    HW2 3955   0.712  -0.085   1.885 -1.1460 -0.6092  0.9258
  988SOL    HW3 3956   0.677   0.014   1.775  1.5095 -0.7453 -0.0699
  988SOL    MW4 3957   0.679  -0.008   1.860  0.2998 -0.2411  0.0926
  989SOL     OW 3958   0.471   0.128   2.001 -0.5139  0.0745 -0.2263
  989SOL    HW2 3959   0.450   0.206   1.949 -0.6696 -0.2057 -0.5839
  989SOL    HW3 3960   0.553   0.096   1.965 -0.3024  0.2332  0.1085
  989SOL    MW4 3961   0.479   0.134   1.990 -0.5065  0.0585 -0.2293
  990SOL     OW 3962   0.415   0.379   1.881 -0.0679 -0.5933  0.4421
  990SOL    HW2 3963   0.486   0.429   1.920  0.8612 -2.8394  1.6775
  990SOL    HW3 3964   0.434   0.379   1.787 -0.5842  2.0924  0.2901
  990SOL    MW4 3965   0.427   0.386   1.874 -0.0134 -0.5353  0.5851
  991SOL     OW 3966   0.653   0.475   1.997  0.1033  0.0361  0.1271
  991SOL    HW2 3967   0.685   0.494   2.086 -1.8261  0.8003  0.6847
  991SOL    HW3 3968   0.730   0.443   1.951  1.2833  0.1818  1.9157
  991SOL    MW4 3969   0.667   0.473   2.003  0.0044  0.1561  0.4367
  992SOL     OW 3970   0.702   0.765   1.901  0.4209  0.3001  0.2328
  992SOL    HW2 3971   0.793   0.792   1.914  1.5461 -1.7382 -2.8565
  992SOL    HW3 3972   0.700   0.674   1.930 -0.1765 -0.1881 -1.2624
  992SOL    MW4 3973   0.714   0.756   1.906  0.4905 -0.0332 -0.3721
  993SOL     OW 3974   0.446   0.878   1.942 -0.1585 -0.0627  0.0038
  993SOL    HW2 3975   0.463   0.968   1.913 -0.6033  0.1487  0.3828
  993SOL    HW3 3976   0.527   0.832   1.925  0.1643  0.4800  0.0519
  993SOL    MW4 3977   0.459   0.884   1.936 -0.1746  0.0368  0.0602
  994SOL     OW 3978   0.459   1.140   1.863  0.7037 -0.5372  0.1810
  994SOL    HW2 3979   0.375   1.170   1.897  0.1925 -1.5967 -0.1135
  994SOL    HW3 3980   0.461   1.172   1.773  0.7152 -0.3174  0.2595
  994SOL    MW4 3981   0.448   1.148   1.856  0.6378 -0.6480  0.1525
  995SOL     OW 3982   0.680   1.292   1.938 -0.4759 -0.7102  0.0462
  995SOL    HW2 3983   0.670   1.291   2.033 -0.8118 -0.0714  0.0247
  995SOL    HW3 3984   0.615   1.230   1.907 -0.2967 -0.9959  0.2402
  995SOL    MW4 3985   0.670   1.284   1.947 -0.4966 -0.6636  0.0690
  996SOL     OW 3986   0.699   1.569   1.863  0.4459  0.0722  0.0329
  996SOL    HW2 3987   0.683   1.481   1.895  0.9043 -0.0176  0.0131
  996SOL    HW3 3988   0.703   1.560   1.767  0.9067  0.0471  0.0538
  996SOL    MW4 3989   0.698   1.557   1.854  0.5672  0.0570  0.0330
  997SOL     OW 3990   0.458   1.686   1.934  0.1850 -0.1191 -0.6008
  997SOL    HW2 3991   0.441   1.663   2.025 -0.1322 -1.5649 -1.0132
  997SOL    HW3 3992   0.542   1.645   1.914  0.3412  0.3446 -0.9110
  997SOL    MW4 3993   0.466   1.678   1.943  0.1638 -0.2487 -0.6961
  998SOL     OW 3994   0.464   1.956   1.862  0.0403 -0.1112  0.2399
  998SOL    HW2 3995   0.464   1.860   1.866  0.3250 -0.1303 -0.1206
  998SOL    HW3 3996   0.392   1.983   1.918 -1.7514 -0.6436 -1.7361
  998SOL    MW4 3997   0.454   1.947   1.870 -0.1585 -0.1839 -0.0683
  999SOL     OW 3998   0.672   2.070   1.981 -0.0233 -0.4623 -0.2003
  999SOL    HW2 3999   0.663   2.071   2.077 -0.1850  1.0479 -0.2073
  999SOL    HW3 4000   0.595   2.021   1.951 -0.3087 -0.4105  0.4230
  999SOL    MW4 4001   0.660   2.064   1.990 -0.0823 -0.2562 -0.1190
 1000SOL     OW 4002   0.729   2.313   1.851 -0.3161  0.0112  0.3440
 1000SOL    HW2 4003   0.712   2.221   1.873 -0.3189 -0.1053 -0.1445
 1000SOL    HW3 4004   0.706   2.320   1.759  0.1264  0.3966  0.2625
 1000SOL    MW4 4005   0.724   2.302   1.842 -0.2581  0.0467  0.2688
 1001SOL     OW 4006   0.485   2.434   1.928 -0.2933 -0.2619  0.3388
 1001SOL    HW2 4007   0.469   2.414   2.020  0.2689 -0.2750  0.4353
 1001SOL    HW3 4008   0.574   2.402   1.911  0.2745  1.3272  0.2542
 1001SOL    MW4 4009   0.494   2.427   1.938 -0.1442 -0.0540  0.3404
 1002SOL     OW 4010   0.459   2.709   1.864 -0.0758  0.3141 -0.4831
 1002SOL    HW2 4011   0.465   2.618   1.893 -0.4549  0.8159  1.2259
 1002SOL    HW3 4012   0.382   2.744   1.911 -1.1635  0.9468 -2.6738
 1002SOL    MW4 4013   0.450   2.702   1.874 -0.2694  0.4638 -0.5467
 1003SOL     OW 4014   0.680   2.860   1.977 -0.3860  0.3945 -0.0020
 1003SOL    HW2 4015   0.679   2.860   2.073  0.9304 -2.3321  0.0593
 1003SOL    HW3 4016   0.601   2.813   1.952 -0.5705  0.8337 -0.2460
 1003SOL    MW4 4017   0.669   2.854   1.986 -0.2366  0.0927 -0.0261
 1004SOL     OW 4018   0.667   3.114   1.890  0.0646 -0.1132 -0.0799
 1004SOL    HW2 4019   0.674   3.029   1.934 -0.0391 -0.4959 -0.7962
 1004SOL    HW3 4020   0.688   3.095   1.799 -1.9401  0.2867 -0.6297
 1004SOL    MW4 4021   0.671   3.101   1.884 -0.2136 -0.1110 -0.2470
 1005SOL     OW 4022   0.427   3.213   1.966  0.0120  0.0207 -0.3770
 1005SOL    HW2 4023   0.431   3.308   1.950  1.8565  0.0328  0.0439
 1005SOL    HW3 4024   0.504   3.178   1.923  0.5247 -1.0076  1.3259
 1005SOL    MW4 4025   0.438   3.221   1.958  0.3230 -0.1134 -0.0968
 1006SOL     OW 4026   0.413   3.485   1.873  0.2452 -0.6690 -0.4287
 1006SOL    HW2 4027   0.487   3.531   1.914 -1.5069  0.9702  0.9578
 1006SOL    HW3 4028   0.432   3.490   1.779  1.1853  1.0173 -0.1845
 1006SOL    MW4 4029   0.425   3.492   1.866  0.1381 -0.2302 -0.2135
 1007SOL     OW 4030   0.633   3.621   1.990  0.1257  0.1210 -0.3718
 1007SOL    HW2 4031   0.708   3.565   1.967  0.2623 -0.1191  0.6397
 1007SOL    HW3 4032   0.662   3.710   1.970  0.4101 -0.0437 -0.6972
 1007SOL    MW4 4033   0.647   3.625   1.984  0.1813  0.0676 -0.2812
 1008SOL     OW 4034   0.707   3.878   1.893 -0.1955 -0.0450 -0.0630
 1008SOL    HW2 4035   0.794   3.918   1.896 -0.4728  0.6589 -1.1372
 1008SOL    HW3 4036   0.682   3.880   1.800 -0.8656 -1.3116  0.0753
 1008SOL    MW4 4037   0.715   3.884   1.881 -0.3205 -0.1193 -0.1865
 1009SOL     OW 4038   0.483   4.012   2.008  0.4289  0.5713 -0.1869
 1009SOL    HW2 4039   0.484   4.102   1.978  1.7408  1.0576  1.2552
 1009SOL    HW3 4040   0.556   3.970   1.963  1.6322  0.9868  1.3561
 1009SOL    MW4 4041   0.492   4.018   1.998  0.7608  0.6903  0.2070
 1010SOL     OW 4042   0.496   4.271   1.910  0.2419 -0.6605  0.0618
 1010SOL    HW2 4043   0.410   4.303   1.939  0.2544 -1.0917  0.5686
 1010SOL    HW3 4044   0.491   4.275   1.814  0.1636  0.6403  0.1214
 1010SOL    MW4 4045   0.484   4.276   1.901  0.2332 -0.5457  0.1365
 1011SOL     OW 4046   0.742   4.411   1.946 -0.2397  0.2106  0.1533
 1011SOL    HW2 4047   0.794   4.356   1.887 -0.0795  0.2665  0.2435
 1011SOL    HW3 4048   0.652   4.384   1.930 -0.1951  0.2082 -0.1030
 1011SOL    MW4 4049   0.737   4.400   1.936 -0.2127  0.2176  0.1313
 1012SOL     OW 4050   1.093   4.631   1.856  0.0822  0.4181 -0.2641
 1012SOL    HW2 4051   1.182   4.658   1.882  0.3194  1.4405 -2.0737
 1012SOL    HW3 4052   1.085   4.541   1.888  1.4152  0.6417  0.7554
 1012SOL    MW4 4053   1.104   4.623   1.864  0.2893  0.5825 -0.3684
 1013SOL     OW 4054   0.897   0.117   1.974  0.0935 -0.4711  0.2045
 1013SOL    HW2 4055   0.972   0.072   1.935 -0.0231  2.3009 -3.4747
 1013SOL    HW3 4056   0.821   0.072   1.937 -0.0734 -0.8183  0.9544
 1013SOL    MW4 4057   0.897   0.105   1.964  0.0561 -0.1512 -0.1820
 1014SOL     OW 4058   0.885   0.373   1.877 -0.3604  0.3002 -0.2602
 1014SOL    HW2 4059   0.969   0.407   1.908 -0.0951  0.5499 -1.2394
 1014SOL    HW3 4060   0.883   0.282   1.908 -0.0010  0.4779  0.2902
 1014SOL    MW4 4061   0.896   0.365   1.885 -0.2780  0.3566 -0.3168
 1015SOL     OW 4062   1.156   0.490   1.948  0.1615  0.2194  0.0096
 1015SOL    HW2 4063   1.225   0.434   1.913 -0.9580 -1.1693 -0.0502
 1015SOL    HW3 4064   1.173   0.576   1.910  1.8224 -0.1077 -0.0339
 1015SOL    MW4 4065   1.167   0.494   1.939  0.2329 -0.0070 -0.0040
 1016SOL     OW 4066   1.145   0.751   1.862 -0.0682  0.1080  0.1340
 1016SOL    HW2 4067   1.213   0.815   1.882  0.6283 -0.3160 -0.8417
 1016SOL    HW3 4068   1.065   0.790   1.896  0.5038  1.0388  0.4462
 1016SOL    MW4 4069   1.144   0.764   1.869  0.0992  0.1748  0.0465
 1017SOL     OW 4070   0.931   0.898   1.940  0.4733 -0.1106 -0.0454
 1017SOL    HW2 4071   0.915   0.915   2.033  3.2454  0.6623  0.3545
 1017SOL    HW3 4072   0.919   0.983   1.898  2.8498  0.3981  0.2082
 1017SOL    MW4 4073   0.928   0.911   1.947  1.1526  0.0585  0.0408
 1018SOL     OW 4074   0.922   1.158   1.847  0.4203  0.3298  0.0272
 1018SOL    HW2 4075   0.843   1.204   1.876  1.1087  1.7913 -0.3779
 1018SOL    HW3 4076   0.912   1.150   1.752 -0.4828 -1.8922  0.2794
 1018SOL    MW4 4077   0.910   1.163   1.838  0.3920  0.2294  0.0070
 1019SOL     OW 4078   1.106   1.310   1.988  0.2265  0.1265  0.3599
 1019SOL    HW2 4079   1.104   1.395   1.943  0.7351  0.0828  0.2487
 1019SOL    HW3 4080   1.057   1.251   1.930  0.8274  0.0853 -0.1150
 1019SOL    MW4 4081   1.099   1.313   1.974  0.3729  0.1153  0.2826
 1020SOL     OW 4082   1.146   1.566   1.843  0.3117 -0.0924  0.4709
 1020SOL    HW2 4083   1.068   1.610   1.875  0.5692 -0.2665  1.3670
 1020SOL    HW3 4084   1.139   1.569   1.748  0.1222  1.5021  0.5283
 1020SOL    MW4 4085   1.135   1.572   1.835  0.3207  0.0950  0.5967
 1021SOL     OW 4086   0.943   1.700   1.958 -0.0460 -0.2037 -0.1492
 1021SOL    HW2 4087   0.939   1.794   1.940  0.5005  0.0062  0.8275
 1021SOL    HW3 4088   0.860   1.666   1.925  0.0119  0.5167 -1.0850
 1021SOL    MW4 4089   0.932   1.708   1.951  0.0338 -0.0810 -0.1438
 1022SOL     OW 4090   0.927   1.967   1.894 -0.1699  0.0337 -0.2570
 1022SOL    HW2 4091   0.840   1.986   1.930  0.4433  2.8985 -0.1738
 1022SOL    HW3 4092   0.912   1.960   1.800 -0.4786  0.6231 -0.2547
 1022SOL    MW4 4093   0.913   1.968   1.886 -0.1297  0.4894 -0.2457
 1023SOL     OW 4094   1.177   2.083   1.954 -0.1813  0.1643  0.1734
 1023SOL    HW2 4095   1.180   2.171   1.917 -0.6056 -0.0007 -0.2661
 1023SOL    HW3 4096   1.089   2.051   1.931 -0.0298 -0.3700  0.3332
 1023SOL    MW4 4097   1.166   2.091   1.946 -0.2173  0.0720  0.1365
 1024SOL     OW 4098   1.141   2.360   1.893  0.0068 -0.3558  0.2319
 1024SOL    HW2 4099   1.220   2.405   1.924 -0.4504  0.2883  0.4673
 1024SOL    HW3 4100   1.144   2.369   1.798 -0.8174  1.4571  0.3415
 1024SOL    MW4 4101   1.152   2.367   1.884 -0.1623 -0.0317  0.2774
 1025SOL     OW 4102   0.912   2.459   1.992  0.3145  0.1071 -0.0577
 1025SOL    HW2 4103   0.996   2.432   1.954 -0.0667 -1.2905  0.0671
 1025SOL    HW3 4104   0.846   2.414   1.938 -0.4902  3.3288 -1.9084
 1025SOL    MW4 4105   0.914   2.449   1.980  0.1581  0.3478 -0.2854
 1026SOL     OW 4106   0.906   2.726   1.925 -0.0432 -0.2319 -0.0861
 1026SOL    HW2 4107   0.897   2.633   1.945  0.5237  0.0965  1.8556
 1026SOL    HW3 4108   0.826   2.766   1.959  1.1265  0.3974  2.0506
 1026SOL    MW4 4109   0.895   2.719   1.932  0.1859 -0.1055  0.4520
 1027SOL     OW 4110   1.142   2.854   2.001  0.0225 -0.1918 -0.1903
 1027SOL    HW2 4111   1.146   2.859   2.096  0.3556 -0.7037 -0.1738
 1027SOL    HW3 4112   1.068   2.796   1.983  0.7887 -1.1939 -0.2042
 1027SOL    MW4 4113   1.133   2.847   2.011  0.1675 -0.3916 -0.1900
 1028SOL     OW 4114   1.130   3.095   1.855 -0.4476  0.1692 -0.6575
 1028SOL    HW2 4115   1.055   3.128   1.905  1.3031  0.4010  1.8796
 1028SOL    HW3 4116   1.138   3.003   1.881 -0.4355 -0.1202 -1.6599
 1028SOL    MW4 4117   1.121   3.087   1.865 -0.2150  0.1616 -0.4550
 1029SOL     OW 4118   0.917   3.212   2.001  0.6114  0.0777 -0.3722
 1029SOL    HW2 4119   0.914   3.197   2.095  0.2645 -0.1310 -0.4167
 1029SOL    HW3 4120   0.832   3.183   1.969  0.2473  1.3074 -0.5760
 1029SOL    MW4 4121   0.906   3.207   2.009  0.5176  0.2124 -0.4050
 1030SOL     OW 4122   0.841   3.457   1.922  0.0573  0.2546 -0.2950
 1030SOL    HW2 4123   0.871   3.373   1.956  1.0040 -0.0522 -1.8603
 1030SOL    HW3 4124   0.859   3.453   1.828 -0.7565  1.8367 -0.5333
 1030SOL    MW4 4125   0.847   3.446   1.914  0.0749  0.4229 -0.5330
 1031SOL     OW 4126   1.104   3.575   1.934 -0.1939 -0.2714 -0.2057
 1031SOL    HW2 4127   1.098   3.592   2.028  0.6324 -0.6988 -0.0696
 1031SOL    HW3 4128   1.018   3.538   1.911 -0.1864 -0.7542  0.5102
 1031SOL    MW4 4129   1.092   3.572   1.944 -0.0839 -0.3915 -0.0933
 1032SOL     OW 4130   1.158   3.848   1.887 -0.2218 -0.3251  0.1839
 1032SOL    HW2 4131   1.135   3.757   1.907 -1.2514  0.0368  0.6900
 1032SOL    HW3 4132   1.157   3.852   1.791  1.0061 -1.1365  0.1261
 1032SOL    MW4 4133   1.155   3.836   1.877 -0.1956 -0.3844  0.2431
 1033SOL     OW 4134   0.933   4.010   1.970  0.4986  0.3238  0.1089
 1033SOL    HW2 4135   0.909   4.011   2.063 -2.8679 -0.6789 -0.6699
 1033SOL    HW3 4136   1.013   3.957   1.966  0.7455  0.4682  2.4373
 1033SOL    MW4 4137   0.940   4.003   1.982  0.0870  0.2106  0.3133
 1034SOL     OW 4138   0.913   4.238   1.805  0.3637  0.1912 -0.0458
 1034SOL    HW2 4139   0.983   4.281   1.854 -1.0171  1.2086  1.0960
 1034SOL    HW3 4140   0.902   4.153   1.848  0.2680  0.4126  0.3707
 1034SOL    MW4 4141   0.920   4.233   1.817  0.1689  0.3546  0.1598
 1035SOL     OW 4142   1.111   4.385   1.977  0.0750  0.0991 -0.4545
 1035SOL    HW2 4143   1.084   4.369   2.067  0.6448  1.3055 -0.0591
 1035SOL    HW3 4144   1.187   4.328   1.965 -0.3153 -0.4492 -0.3443
 1035SOL    MW4 4145   1.118   4.375   1.987  0.0987  0.1859 -0.3878
 1036SOL     OW 4146   1.574   4.619   1.860 -0.2168 -0.0475 -0.7007
 1036SOL    HW2 4147   1.648   4.661   1.903 -1.6094  2.2662 -0.4856
 1036SOL    HW3 4148   1.576   4.528   1.891 -0.2074  1.1403  3.0214
 1036SOL    MW4 4149   1.584   4.612   1.870 -0.3993  0.4145 -0.1812
 1037SOL     OW 4150   1.345   0.089   1.948 -0.5900  0.0001  0.0380
 1037SOL    HW2 4151   1.338   0.100   2.043  0.8651 -0.0046  0.1531
 1037SOL    HW3 4152   1.427   0.041   1.935 -0.6510  0.2205 -1.2437
 1037SOL    MW4 4153   1.355   0.084   1.959 -0.4060  0.0285 -0.1160
 1038SOL     OW 4154   1.386   0.356   1.873 -0.4984  0.1362  0.0179
 1038SOL    HW2 4155   1.375   0.263   1.895 -1.4943  0.2986  0.2430
 1038SOL    HW3 4156   1.387   0.358   1.777  0.6260 -0.2228  0.0167
 1038SOL    MW4 4157   1.385   0.344   1.863 -0.4814  0.1102  0.0474
 1039SOL     OW 4158   1.563   0.544   2.001  0.0326  0.0385  0.1530
 1039SOL    HW2 4159   1.644   0.511   1.961  0.2052  1.3588 -0.6309
 1039SOL    HW3 4160   1.495   0.485   1.971  0.6277 -0.7925  0.4148
 1039SOL    MW4 4161   1.565   0.532   1.992  0.1339  0.1031  0.0841
 1040SOL     OW 4162   1.592   0.832   1.898 -0.2339  0.6908 -0.0978
 1040SOL    HW2 4163   1.679   0.850   1.934  0.7575 -0.1733 -1.9928
 1040SOL    HW3 4164   1.567   0.747   1.935 -0.4069  1.0723  0.6702
 1040SOL    MW4 4165   1.600   0.823   1.908 -0.1259  0.6272 -0.2465
 1041SOL     OW 4166   1.349   0.931   1.963  0.0829 -0.0141  0.0404
 1041SOL    HW2 4167   1.358   0.940   2.058  0.5054 -0.7833  0.0883
 1041SOL    HW3 4168   1.439   0.914   1.933 -0.0557  0.1948 -0.4870
 1041SOL    MW4 4169   1.362   0.930   1.971  0.1203 -0.0880 -0.0229
 1042SOL     OW 4170   1.327   1.193   1.870  0.2248  0.2759 -0.4598
 1042SOL    HW2 4171   1.316   1.102   1.899  1.6157 -0.3309 -1.8187
 1042SOL    HW3 4172   1.249   1.237   1.903 -0.0659 -1.2229  0.9411
 1042SOL    MW4 4173   1.315   1.187   1.878  0.3699 -0.0019 -0.4543
 1043SOL     OW 4174   1.607   1.263   1.953 -0.8847  0.0754 -0.1065
 1043SOL    HW2 4175   1.616   1.349   1.913 -2.2506  0.9049  1.3096
 1043SOL    HW3 4176   1.518   1.236   1.935 -0.9375 -0.3587  0.7475
 1043SOL    MW4 4177   1.597   1.271   1.946 -1.0719  0.1276  0.1930
 1044SOL     OW 4178   1.589   1.527   1.876  0.4891 -0.3793  0.3805
 1044SOL    HW2 4179   1.659   1.574   1.923  0.6423  0.1329 -0.3538
 1044SOL    HW3 4180   1.508   1.566   1.910  0.6050  0.1478  0.0542
 1044SOL    MW4 4181   1.588   1.539   1.887  0.5246 -0.2422  0.2405
 1045SOL     OW 4182   1.374   1.691   1.952 -0.2229 -0.0264 -0.1162
 1045SOL    HW2 4183   1.358   1.701   2.045 -1.1109  3.3825 -0.5511
 1045SOL    HW3 4184   1.296   1.647   1.918 -0.7792  0.5121  0.4670
 1045SOL    MW4 4185   1.362   1.686   1.960 -0.4134  0.4944 -0.0967
 1046SOL     OW 4186   1.374   1.939   1.823 -0.2444 -0.5303 -0.3395
 1046SOL    HW2 4187   1.383   1.857   1.871 -0.8501 -0.7887 -0.6517
 1046SOL    HW3 4188   1.316   1.992   1.877  1.9359  0.5775  0.9717
 1046SOL    MW4 4189   1.368   1.935   1.836 -0.0366 -0.4183 -0.2077
 1047SOL     OW 4190   1.586   2.053   1.975  0.1158 -0.1016  0.2675
 1047SOL    HW2 4191   1.602   2.144   1.951  2.0116 -0.7972 -1.3030
 1047SOL    HW3 4192   1.517   2.024   1.915  0.3322 -0.0173 -0.0258
 1047SOL    MW4 4193   1.579   2.061   1.964  0.3945 -0.1823  0.0216
 1048SOL     OW 4194   1.575   2.306   1.840 -0.3796 -0.7036  0.0965
 1048SOL    HW2 4195   1.646   2.354   1.884 -0.8324  1.0310 -1.0207
 1048SOL    HW3 4196   1.600   2.306   1.748 -1.6174 -0.4549 -0.2467
 1048SOL    MW4 4197   1.588   2.312   1.834 -0.6027 -0.4419 -0.0962
 1049SOL     OW 4198   1.380   2.464   1.974 -0.1690 -0.0089  0.6684
 1049SOL    HW2 4199   1.387   2.552   1.938 -0.8343 -1.0337 -2.1005
 1049SOL    HW3 4200   1.433   2.410   1.916 -2.2535 -1.9325  0.4870
 1049SOL    MW4 4201   1.388   2.468   1.962 -0.5318 -0.3979  0.2791
 1050SOL     OW 4202   1.352   2.726   1.870 -0.1370 -0.5950  0.1354
 1050SOL    HW2 4203   1.280   2.779   1.904 -0.2554 -0.5369 -0.2111
 1050SOL    HW3 4204   1.353   2.743   1.776  0.8349  0.0279  0.2422
 1050SOL    MW4 4205   1.343   2.735   1.862 -0.0244 -0.5052  0.1038
 1051SOL     OW 4206   1.565   2.879   1.939 -0.0017  0.6096 -0.0777
 1051SOL    HW2 4207   1.632   2.814   1.917 -0.3740 -0.1060  0.8689
 1051SOL    HW3 4208   1.482   2.833   1.924 -0.2627  0.7486  0.9187
 1051SOL    MW4 4209   1.563   2.864   1.934 -0.0852  0.5335  0.1787
 1052SOL     OW 4210   1.563   3.156   1.867 -0.1377  0.3878  0.1626
 1052SOL    HW2 4211   1.569   3.068   1.904 -1.4330 -0.2178 -1.0101
 1052SOL    HW3 4212   1.564   3.142   1.772 -0.7997  1.5909 -0.0391
 1052SOL    MW4 4213   1.564   3.142   1.859 -0.3960  0.4667 -0.0187
 1053SOL     OW 4214   1.346   3.222   2.005  0.6271 -0.1573  0.1946
 1053SOL    HW2 4215   1.412   3.179   1.951  0.3844 -0.0127 -0.2150
 1053SOL    HW3 4216   1.263   3.199   1.965  0.2819 -1.9335  1.8283
 1053SOL    MW4 4217   1.344   3.213   1.993  0.5496 -0.3726  0.3561
 1054SOL     OW 4218   1.330   3.466   1.872 -0.4501  0.3248 -0.7219
 1054SOL    HW2 4219   1.336   3.387   1.925  0.3645  0.4234 -0.6656
 1054SOL    HW3 4220   1.243   3.500   1.890  0.2461  1.0226  1.4792
 1054SOL    MW4 4221   1.319   3.460   1.881 -0.2508  0.4299 -0.4241
 1055SOL     OW 4222   1.568   3.600   1.969  0.2154  0.5647 -0.4221
 1055SOL    HW2 4223   1.570   3.582   2.063  0.0490  2.4699 -0.0387
 1055SOL    HW3 4224   1.487   3.559   1.938  0.2622 -0.0516  0.2655
 1055SOL    MW4 4225   1.557   3.592   1.977  0.1996  0.7347 -0.2808
 1056SOL     OW 4226   1.625   3.874   1.867 -0.1648 -0.1642 -0.3754
 1056SOL    HW2 4227   1.695   3.901   1.926 -0.0889 -1.4567  0.1546
 1056SOL    HW3 4228   1.615   3.780   1.884 -0.9670 -0.3022 -1.5573
 1056SOL    MW4 4229   1.633   3.865   1.877 -0.2606 -0.3529 -0.4614
 1057SOL     OW 4230   1.387   3.962   1.990  0.1090 -0.3933  0.4346
 1057SOL    HW2 4231   1.459   3.929   1.936 -1.1042 -0.9627 -0.8717
 1057SOL    HW3 4232   1.310   3.915   1.958 -0.9459  0.6363  1.4221
 1057SOL    MW4 4233   1.386   3.951   1.979 -0.1903 -0.3325  0.3925
 1058SOL     OW 4234   1.304   4.217   1.886 -0.1217 -0.1757 -1.1361
 1058SOL    HW2 4235   1.324   4.128   1.916  0.5072 -0.4412 -2.3133
 1058SOL    HW3 4236   1.326   4.217   1.793 -0.0143  1.2454 -1.1261
 1058SOL    MW4 4237   1.310   4.205   1.878 -0.0246 -0.0233 -1.2901
 1059SOL     OW 4238   1.586   4.339   1.980 -0.0665  0.4493 -0.0126
 1059SOL    HW2 4239   1.579   4.346   2.075  0.6434  0.3514  0.0478
 1059SOL    HW3 4240   1.508   4.291   1.954 -1.0324  1.7589  0.3664
 1059SOL    MW4 4241   1.575   4.334   1.989 -0.1002  0.6092  0.0454
 1060SOL     OW 4242   2.014   0.022   1.933  0.0171  0.0925 -0.3600
 1060SOL    HW2 4243   2.098   0.044   1.974  1.0481 -1.0829 -1.7871
 1060SOL    HW3 4244   2.003  -0.072   1.951  0.2060 -0.3038 -2.2572
 1060SOL    MW4 4245   2.024   0.012   1.941  0.1780 -0.1149 -0.7986
 1061SOL     OW 4246   1.768   0.135   1.970 -0.1562  0.0581 -0.2434
 1061SOL    HW2 4247   1.757   0.121   2.064 -0.3281  1.6525 -0.0067
 1061SOL    HW3 4248   1.857   0.106   1.951  0.2648  0.7569  0.6276
 1061SOL    MW4 4249   1.778   0.129   1.979 -0.1234  0.3606 -0.0973
 1062SOL     OW 4250   1.773   0.403   1.898 -0.3509 -0.1028  0.0386
 1062SOL    HW2 4251   1.768   0.313   1.930  2.2494 -0.1130  0.5284
 1062SOL    HW3 4252   1.774   0.394   1.803 -2.2878 -0.4467  0.0451
 1062SOL    MW4 4253   1.773   0.390   1.890 -0.2634 -0.1495  0.1041
 1063SOL     OW 4254   2.029   0.463   1.986 -0.0354  0.2030 -0.1532
 1063SOL    HW2 4255   2.041   0.550   1.946  0.9917  0.2536  0.2422
 1063SOL    HW3 4256   1.941   0.436   1.959 -0.4415  1.4561 -0.1185
 1063SOL    MW4 4257   2.019   0.471   1.977  0.0465  0.3750 -0.0965
 1064SOL     OW 4258   2.019   0.728   1.882  0.1104  0.2826 -0.3205
 1064SOL    HW2 4259   2.090   0.789   1.905  0.5772 -0.5451  0.4433
 1064SOL    HW3 4260   2.011   0.737   1.787  0.0500  1.6742 -0.1953
 1064SOL    MW4 4261   2.027   0.737   1.872  0.1640  0.3570 -0.2032
 1065SOL     OW 4262   1.841   0.863   2.042  0.1182 -0.7474 -0.4032
 1065SOL    HW2 4263   1.854   0.946   1.995 -0.6263 -0.2395  0.2842
 1065SOL    HW3 4264   1.901   0.802   1.999  0.5683  0.1098 -1.0093
 1065SOL    MW4 4265   1.850   0.866   2.030  0.0793 -0.5673 -0.3925
 1066SOL     OW 4266   1.830   1.111   1.877 -0.2889  0.2744 -0.1977
 1066SOL    HW2 4267   1.757   1.158   1.917 -3.1647 -2.8027 -1.6114
 1066SOL    HW3 4268   1.822   1.129   1.784  1.1305  0.3698 -0.3147
 1066SOL    MW4 4269   1.820   1.120   1.870 -0.4810 -0.1190 -0.3997
 1067SOL     OW 4270   2.033   1.294   1.976  0.5251  0.5314  0.1103
 1067SOL    HW2 4271   2.113   1.243   1.963  0.5057  0.5111  0.0732
 1067SOL    HW3 4272   1.962   1.236   1.948  0.3937  0.0629  1.3724
 1067SOL    MW4 4273   2.034   1.280   1.971  0.5052  0.4669  0.2720
 1068SOL     OW 4274   2.033   1.548   1.856 -0.5098 -0.0716  0.1111
 1068SOL    HW2 4275   2.046   1.455   1.877  1.2920  0.1234 -0.0885
 1068SOL    HW3 4276   2.026   1.551   1.761 -0.6953 -0.0094  0.1258
 1068SOL    MW4 4277   2.034   1.536   1.846 -0.2965 -0.0377  0.0867
 1069SOL     OW 4278   1.819   1.673   1.971  0.6508  0.2103 -0.1619
 1069SOL    HW2 4279   1.817   1.762   1.936  0.0934 -0.4076 -1.7532
 1069SOL    HW3 4280   1.897   1.634   1.933  0.3237 -0.3154 -0.2929
 1069SOL    MW4 4281   1.829   1.680   1.962  0.5341  0.0594 -0.3891
 1070SOL     OW 4282   1.793   1.923   1.855 -0.0116  0.2390 -0.2764
 1070SOL    HW2 4283   1.711   1.964   1.880 -0.7190 -1.8215  0.8808
 1070SOL    HW3 4284   1.783   1.903   1.762 -1.6033 -1.6767  0.2596
 1070SOL    MW4 4285   1.781   1.925   1.846 -0.3150 -0.2856 -0.0530
 1071SOL     OW 4286   2.008   2.034   1.991 -0.3315 -0.2418  0.3187
 1071SOL    HW2 4287   2.085   2.010   1.938 -0.1517  1.3408 -0.1806
 1071SOL    HW3 4288   1.935   1.990   1.948  0.2700 -1.6762  0.7338
 1071SOL    MW4 4289   2.009   2.025   1.978 -0.2284 -0.2222  0.3076
 1072SOL     OW 4290   2.010   2.292   1.859 -0.0276  0.4313  0.2969
 1072SOL    HW2 4291   2.096   2.329   1.883 -0.0985  0.8934 -0.1600
 1072SOL    HW3 4292   2.002   2.214   1.914  1.7869 -1.0351 -1.4296
 1072SOL    MW4 4293   2.021   2.287   1.870  0.2025  0.2988  0.0088
 1073SOL     OW 4294   1.785   2.438   1.942  0.3041 -0.4718  0.2925
 1073SOL    HW2 4295   1.790   2.427   2.037 -0.3374 -0.6146  0.3099
 1073SOL    HW3 4296   1.854   2.380   1.908 -0.6233 -1.7731  0.5854
 1073SOL    MW4 4297   1.795   2.429   1.950  0.0971 -0.6624  0.3334
 1074SOL     OW 4298   1.790   2.712   1.866 -0.1026  0.3244 -0.2565
 1074SOL    HW2 4299   1.790   2.621   1.893  3.1303  0.4125  0.2360
 1074SOL    HW3 4300   1.782   2.709   1.771 -0.5003 -0.4343 -0.1989
 1074SOL    MW4 4301   1.789   2.700   1.857  0.2714  0.2359 -0.1840
 1075SOL     OW 4302   2.018   2.837   1.983  0.1341  0.5240 -0.4560
 1075SOL    HW2 4303   1.988   2.835   2.074  0.5202 -1.2021 -0.3613
 1075SOL    HW3 4304   1.950   2.790   1.934  0.5835  0.3008 -0.8644
 1075SOL    MW4 4305   2.005   2.831   1.989  0.2443  0.2668 -0.4974
 1076SOL     OW 4306   2.013   3.088   1.877  0.2693 -0.0913 -0.0004
 1076SOL    HW2 4307   1.936   3.127   1.917 -0.2493  0.5497 -1.6051
 1076SOL    HW3 4308   2.014   2.998   1.910 -1.5983 -0.3355 -0.5663
 1076SOL    MW4 4309   2.003   3.081   1.887 -0.0455 -0.0389 -0.2868
 1077SOL     OW 4310   1.808   3.225   1.989  0.0123 -0.5081  0.2885
 1077SOL    HW2 4311   1.797   3.224   2.084  0.5149  1.1506  0.3801
 1077SOL    HW3 4312   1.727   3.187   1.955 -0.3629 -0.6806  1.3581
 1077SOL    MW4 4313   1.796   3.220   1.997  0.0291 -0.3120  0.4417
 1078SOL     OW 4314   1.786   3.486   1.855  0.7847  0.2159  0.0269
 1078SOL    HW2 4315   1.789   3.395   1.885  1.4430  0.5475  1.0103
 1078SOL    HW3 4316   1.708   3.522   1.897  1.3103  0.4858  0.7794
 1078SOL    MW4 4317   1.776   3.479   1.865  0.9409  0.2952  0.2560
 1079SOL     OW 4318   2.003   3.614   1.981 -0.1454  0.1561 -0.1992
 1079SOL    HW2 4319   2.027   3.695   1.936  0.2103 -0.2037 -0.6537
 1079SOL    HW3 4320   1.920   3.587   1.941 -0.8888  0.9345  0.7784
 1079SOL    MW4 4321   1.995   3.621   1.970 -0.1965  0.2113 -0.1302
 1080SOL     OW 4322   2.065   3.865   1.857  0.2619 -0.1064  0.4702
 1080SOL    HW2 4323   2.133   3.918   1.897  0.2641  0.5373 -0.3654
 1080SOL    HW3 4324   2.069   3.887   1.764 -0.9138 -0.2466  0.3767
 1080SOL    MW4 4325   2.074   3.875   1.850  0.1071 -0.0400  0.3476
 1081SOL     OW 4326   1.852   3.970   2.014 -0.3356 -0.1118 -0.0725
 1081SOL    HW2 4327   1.825   4.051   1.970  1.3349  0.7256  0.4239
 1081SOL    HW3 4328   1.917   3.932   1.956 -1.5466 -1.4298 -0.5940
 1081SOL    MW4 4329   1.857   3.976   2.001 -0.2749 -0.1752 -0.0758
 1082SOL     OW 4330   1.822   4.222   1.911 -0.3942 -0.1645  0.1898
 1082SOL    HW2 4331   1.750   4.274   1.947 -0.1206  0.3413  0.0172
 1082SOL    HW3 4332   1.825   4.246   1.819 -0.6364 -0.9273 -0.0225
 1082SOL    MW4 4333   1.813   4.232   1.904 -0.3900 -0.1984  0.1390
 1083SOL     OW 4334   2.000   4.413   1.987  0.2587 -0.1631 -0.0914
 1083SOL    HW2 4335   2.086   4.377   1.964  0.4264 -0.6057  1.2047
 1083SOL    HW3 4336   1.939   4.342   1.970  0.3749 -0.4692  0.7844
 1083SOL    MW4 4337   2.003   4.399   1.982  0.2962 -0.2619  0.1952
 1084SOL     OW 4338   2.470   0.005   1.876  0.0468 -0.2299 -0.5546
 1084SOL    HW2 4339   2.548   0.056   1.900  0.0791 -0.6249  0.2003
 1084SOL    HW3 4340   2.488  -0.082   1.910 -0.2404 -0.6129 -1.3836
 1084SOL    MW4 4341   2.483   0.001   1.884  0.0132 -0.3325 -0.5644
 1085SOL     OW 4342   2.258   0.114   2.029  0.4282 -0.1015 -0.4127
 1085SOL    HW2 4343   2.279   0.108   2.122 -0.5583  1.7277 -0.0472
 1085SOL    HW3 4344   2.323   0.058   1.986  1.2233 -0.5432  1.3187
 1085SOL    MW4 4345   2.269   0.106   2.035  0.4029  0.0816 -0.1361
 1086SOL     OW 4346   2.256   0.369   1.879 -0.0209 -0.0073  0.4801
 1086SOL    HW2 4347   2.257   0.284   1.922 -0.9551 -0.7020 -0.8360
 1086SOL    HW3 4348   2.172   0.407   1.901  0.5690  0.7739  1.4198
 1086SOL    MW4 4349   2.245   0.363   1.887 -0.0663  0.0041  0.4304
 1087SOL     OW 4350   2.480   0.498   1.991  0.5450  0.2807  0.7619
 1087SOL    HW2 4351   2.552   0.458   1.943  0.7529  1.4508  0.0835
 1087SOL    HW3 4352   2.401   0.459   1.953  0.7475  0.4905  0.1186
 1087SOL    MW4 4353   2.479   0.488   1.980  0.5991  0.4628  0.5876
 1088SOL     OW 4354   2.445   0.757   1.908  0.3666 -0.4578 -0.0113
 1088SOL    HW2 4355   2.464   0.667   1.935 -0.3686 -0.8147 -0.6513
 1088SOL    HW3 4356   2.453   0.755   1.813 -0.4817 -0.0486 -0.0966
 1088SOL    MW4 4357   2.448   0.745   1.899  0.1576 -0.4509 -0.1070
 1089SOL     OW 4358   2.224   0.912   1.984  0.0445  0.4715  0.1677
 1089SOL    HW2 4359   2.203   0.900   2.076 -1.9201 -1.6369 -0.5139
 1089SOL    HW3 4360   2.311   0.871   1.974  0.4282  1.0292  1.1375
 1089SOL    MW4 4361   2.233   0.905   1.995 -0.1641  0.2669  0.2057
 1090SOL     OW 4362   2.262   1.159   1.877 -0.2643  0.0172  0.2092
 1090SOL    HW2 4363   2.344   1.178   1.923 -0.4130  1.5597 -0.1318
 1090SOL    HW3 4364   2.253   1.064   1.883  1.8363 -0.2362 -0.2333
 1090SOL    MW4 4365   2.271   1.149   1.884 -0.0067  0.1873  0.1058
 1091SOL     OW 4366   2.475   1.244   2.025  0.0681 -0.7266 -0.3089
 1091SOL    HW2 4367   2.462   1.250   2.120  1.5846 -1.1656 -0.0507
 1091SOL    HW3 4368   2.464   1.333   1.993 -0.7409 -0.6252  0.2432
 1091SOL    MW4 4369   2.472   1.256   2.034  0.1615 -0.7712 -0.2020
 1092SOL     OW 4370   2.457   1.485   1.906 -0.2472 -0.0521 -0.1303
 1092SOL    HW2 4371   2.390   1.548   1.931  0.1967  0.2259  0.3678
 1092SOL    HW3 4372   2.456   1.486   1.810 -0.9461 -0.0469 -0.1239
 1092SOL    MW4 4373   2.448   1.494   1.896 -0.2808 -0.0147 -0.0638
 1093SOL     OW 4374   2.255   1.653   1.971  0.0374 -0.6003  0.2962
 1093SOL    HW2 4375   2.254   1.643   2.066  0.5320  0.2548  0.3978
 1093SOL    HW3 4376   2.168   1.627   1.942  0.0362 -1.3089  0.9396
 1093SOL    MW4 4377   2.244   1.648   1.979  0.1025 -0.5810  0.3945
 1094SOL     OW 4378   2.262   1.948   1.848 -0.1405  0.1304  0.1576
 1094SOL    HW2 4379   2.330   2.006   1.882  0.2922 -0.4925  0.3687
 1094SOL    HW3 4380   2.266   1.871   1.905 -0.1563 -0.4554 -0.6305
 1094SOL    MW4 4381   2.271   1.946   1.860 -0.0855 -0.0291  0.0814
 1095SOL     OW 4382   2.483   2.059   1.975 -0.1297 -0.4487 -0.3779
 1095SOL    HW2 4383   2.550   1.994   1.953  0.9751  0.1206  1.2267
 1095SOL    HW3 4384   2.507   2.136   1.924  0.9349  0.0263  0.8246
 1095SOL    MW4 4385   2.495   2.060   1.966  0.1565 -0.3109 -0.0075
 1096SOL     OW 4386   2.468   2.316   1.847  0.2862  0.0859 -0.7330
 1096SOL    HW2 4387   2.539   2.362   1.892  0.6841 -0.0001 -1.2657
 1096SOL    HW3 4388   2.391   2.370   1.863  0.3986  0.0027  0.1323
 1096SOL    MW4 4389   2.468   2.329   1.855  0.3535  0.0636 -0.6891
 1097SOL     OW 4390   2.229   2.447   1.937  0.1385 -0.2416  0.2084
 1097SOL    HW2 4391   2.252   2.447   2.030 -0.0866 -1.5610  0.2838
 1097SOL    HW3 4392   2.234   2.538   1.910 -0.5866  0.2423  1.7066
 1097SOL    MW4 4393   2.233   2.459   1.945  0.0131 -0.3518  0.4160
 1098SOL     OW 4394   2.251   2.726   1.870  0.1820 -0.2318  0.4612
 1098SOL    HW2 4395   2.175   2.769   1.910  0.8943  0.6532  0.8502
 1098SOL    HW3 4396   2.237   2.737   1.776  1.7737  3.3172  0.5843
 1098SOL    MW4 4397   2.239   2.733   1.863  0.4860  0.3532  0.5287
 1099SOL     OW 4398   2.492   2.834   1.953  0.1231 -0.0344 -0.2731
 1099SOL    HW2 4399   2.501   2.925   1.927  0.3012  0.4499  1.4230
 1099SOL    HW3 4400   2.402   2.810   1.930 -0.1883  0.8187  0.0549
 1099SOL    MW4 4401   2.482   2.843   1.947  0.1055  0.1421 -0.0060
 1100SOL     OW 4402   2.510   3.104   1.885 -0.0250  0.4210 -0.1599
 1100SOL    HW2 4403   2.420   3.123   1.912  0.1064  1.7264 -0.5832
 1100SOL    HW3 4404   2.507   3.108   1.789  0.4930  0.5515 -0.1731
 1100SOL    MW4 4405   2.498   3.107   1.876  0.0607  0.6104 -0.2175
 1101SOL     OW 4406   2.266   3.207   1.984 -0.2228  0.0942 -0.3102
 1101SOL    HW2 4407   2.265   3.203   2.079 -0.2585  0.0142 -0.3137
 1101SOL    HW3 4408   2.183   3.166   1.957  0.1395 -0.6048 -0.3942
 1101SOL    MW4 4409   2.255   3.201   1.993 -0.1797 -0.0086 -0.3217
 1102SOL     OW 4410   2.244   3.468   1.893  0.3217 -0.4876 -0.1827
 1102SOL    HW2 4411   2.237   3.377   1.923  1.2147 -0.6096 -0.3172
 1102SOL    HW3 4412   2.162   3.509   1.919  0.1859 -1.1646  0.4640
 1102SOL    MW4 4413   2.233   3.461   1.900  0.4216 -0.5930 -0.1151
 1103SOL     OW 4414   2.446   3.638   1.961 -0.1490 -0.0143  0.3337
 1103SOL    HW2 4415   2.463   3.614   2.053  0.5769  0.1439  0.2417
 1103SOL    HW3 4416   2.372   3.582   1.936  0.0718 -0.5315  0.8165
 1103SOL    MW4 4417   2.438   3.627   1.970 -0.0241 -0.0617  0.3852
 1104SOL     OW 4418   2.459   3.878   1.828 -0.7447 -0.2972  0.2774
 1104SOL    HW2 4419   2.395   3.930   1.876 -1.5116  0.6457 -1.7169
 1104SOL    HW3 4420   2.450   3.789   1.863 -1.7285  0.2310  1.3910
 1104SOL    MW4 4421   2.450   3.873   1.839 -0.9757 -0.1031  0.1612
 1105SOL     OW 4422   2.287   4.055   1.957 -0.0799  0.6873  0.2961
 1105SOL    HW2 4423   2.291   4.071   2.052  1.9941 -0.0463  0.3560
 1105SOL    HW3 4424   2.285   4.142   1.918  2.9666  1.0961  0.9126
 1105SOL    MW4 4425   2.287   4.068   1.965  0.5957  0.6444  0.3854
 1106SOL     OW 4426   2.241   4.315   1.849  0.2926  0.3718  0.1427
 1106SOL    HW2 4427   2.330   4.344   1.868  0.3750 -0.1190  0.5279
 1106SOL    HW3 4428   2.229   4.332   1.755  0.8747  0.2222  0.0407
 1106SOL    MW4 4429   2.251   4.321   1.839  0.3803  0.2873  0.1801
 1107SOL     OW 4430   2.482   4.421   1.970 -0.0674 -0.3525  0.1630
 1107SOL    HW2 4431   2.469   4.410   2.064  0.3181  0.8639  0.3694
 1107SOL    HW3 4432   2.553   4.361   1.947  1.6637  1.2573  1.1542
 1107SOL    MW4 4433   2.490   4.412   1.979  0.2119  0.0204  0.3210
 1108SOL     OW 4434   2.927   4.667   1.863 -0.3068 -0.1448  0.0661
 1108SOL    HW2 4435   3.006   4.710   1.896  0.0002  0.2366 -1.1078
 1108SOL    HW3 4436   2.921   4.586   1.913 -0.3894  0.8477  1.6787
 1108SOL    MW4 4437   2.937   4.662   1.874 -0.2772  0.0365  0.1240
 1109SOL     OW 4438   2.697   0.130   1.956  0.0873  0.3211  0.1439
 1109SOL    HW2 4439   2.706   0.130   2.052  1.2793  0.5641  0.0380
 1109SOL    HW3 4440   2.782   0.099   1.924 -0.2624  0.3695 -0.8432
 1109SOL    MW4 4441   2.709   0.126   1.965  0.1984  0.3595 -0.0003
 1110SOL     OW 4442   2.699   0.377   1.863  0.2756 -0.0647 -0.0947
 1110SOL    HW2 4443   2.780   0.408   1.903 -0.2773  1.0595  0.1913
 1110SOL    HW3 4444   2.682   0.293   1.906  0.3535  0.5330  1.1530
 1110SOL    MW4 4445   2.708   0.370   1.874  0.2130  0.1625  0.1076
 1111SOL     OW 4446   2.917   0.485   2.009  0.0916  0.0692  0.0669
 1111SOL    HW2 4447   3.002   0.448   1.985  0.0460  0.5851 -0.9469
 1111SOL    HW3 4448   2.905   0.559   1.948 -1.2257 -0.1971 -0.0231
 1111SOL    MW4 4449   2.927   0.490   1.998 -0.0882  0.1021 -0.0788
 1112SOL     OW 4450   2.904   0.723   1.869  0.4192 -0.3021  0.2372
 1112SOL    HW2 4451   2.981   0.767   1.905  1.2556 -0.9759 -0.7180
 1112SOL    HW3 4452   2.830   0.768   1.911  1.3281 -0.2159  1.8077
 1112SOL    MW4 4453   2.904   0.735   1.879  0.6495 -0.3797  0.3184
 1113SOL     OW 4454   2.696   0.856   2.006  0.2009  0.1626 -0.1917
 1113SOL    HW2 4455   2.703   0.943   1.967  1.3422 -0.9653 -2.5963
 1113SOL    HW3 4456   2.612   0.823   1.976 -0.7607  0.8479  1.6658
 1113SOL    MW4 4457   2.686   0.863   1.997  0.2246  0.1042 -0.2639
 1114SOL     OW 4458   2.693   1.122   1.917  0.4324 -0.2513 -0.1271
 1114SOL    HW2 4459   2.607   1.150   1.949  0.4300 -1.1469  0.6736
 1114SOL    HW3 4460   2.695   1.150   1.826 -0.9587 -0.7749 -0.3255
 1114SOL    MW4 4461   2.682   1.129   1.909  0.2485 -0.4385 -0.0476
 1115SOL     OW 4462   2.935   1.270   1.970 -0.1613 -0.2500  0.2425
 1115SOL    HW2 4463   2.933   1.353   1.923  0.5442 -0.1506  0.3674
 1115SOL    HW3 4464   2.853   1.227   1.948  0.0128 -0.0626 -0.8195
 1115SOL    MW4 4465   2.924   1.275   1.961 -0.0453 -0.2121  0.1188
 1116SOL     OW 4466   2.930   1.526   1.872 -0.2714 -0.1435 -0.2707
 1116SOL    HW2 4467   3.009   1.563   1.911 -0.4826  0.9720 -0.8973
 1116SOL    HW3 4468   2.945   1.529   1.778 -1.0076 -0.0203 -0.3917
 1116SOL    MW4 4469   2.942   1.531   1.865 -0.3964  0.0199 -0.3694
 1117SOL     OW 4470   2.708   1.660   1.979 -0.4212 -0.1989 -0.2157
 1117SOL    HW2 4471   2.782   1.613   1.940 -0.4525 -0.5663  0.1572
 1117SOL    HW3 4472   2.631   1.619   1.941 -0.4437 -0.2749 -0.0888
 1117SOL    MW4 4473   2.708   1.649   1.969 -0.4283 -0.2574 -0.1498
 1118SOL     OW 4474   2.679   1.900   1.841 -0.5432 -0.3182 -0.3570
 1118SOL    HW2 4475   2.743   1.954   1.889  0.6468 -1.8002 -0.2283
 1118SOL    HW3 4476   2.671   1.821   1.894 -0.9331 -1.0088 -1.4489
 1118SOL    MW4 4477   2.687   1.897   1.854 -0.4377 -0.6048 -0.4841
 1119SOL     OW 4478   2.888   2.050   1.988  0.3243 -0.2584 -0.6325
 1119SOL    HW2 4479   2.898   2.049   2.083 -0.7054  0.7783 -0.4982
 1119SOL    HW3 4480   2.960   1.996   1.956 -0.2731 -1.9411  0.8042
 1119SOL    MW4 4481   2.899   2.043   1.996  0.1096 -0.3436 -0.4252
 1120SOL     OW 4482   2.913   2.290   1.873 -0.3423  0.1228 -0.1449
 1120SOL    HW2 4483   3.003   2.304   1.900 -0.6615 -0.1866  1.1301
 1120SOL    HW3 4484   2.892   2.202   1.904 -1.0895  0.1960 -0.4134
 1120SOL    MW4 4485   2.922   2.280   1.880 -0.4830  0.0917 -0.0121
 1121SOL     OW 4486   2.684   2.448   1.972  0.3305  0.1756  0.4805
 1121SOL    HW2 4487   2.706   2.534   1.937 -0.6859  0.5925  0.8406
 1121SOL    HW3 4488   2.756   2.391   1.945 -0.1951  0.5814 -1.8381
 1121SOL    MW4 4489   2.697   2.452   1.964  0.1271  0.2841  0.2221
 1122SOL     OW 4490   2.706   2.709   1.859  0.0658 -0.4700 -0.0964
 1122SOL    HW2 4491   2.628   2.756   1.889  1.5939  1.8648  0.3432
 1122SOL    HW3 4492   2.704   2.717   1.764  0.0834  0.1146 -0.0490
 1122SOL    MW4 4493   2.695   2.716   1.851  0.2697 -0.0848 -0.0322
 1123SOL     OW 4494   2.913   2.854   1.956  0.1081  0.4707 -0.0370
 1123SOL    HW2 4495   2.897   2.944   1.927 -1.0288  0.2257 -0.1812
 1123SOL    HW3 4496   2.845   2.802   1.913 -1.1503 -0.0087  2.4426
 1123SOL    MW4 4497   2.902   2.859   1.946 -0.2080  0.3751  0.2711
 1124SOL     OW 4498   2.912   3.099   1.852  0.2276  0.4353 -0.0041
 1124SOL    HW2 4499   2.992   3.128   1.895 -0.1282  0.4620  0.6502
 1124SOL    HW3 4500   2.842   3.144   1.899 -0.1498  0.6941 -0.8083
 1124SOL    MW4 4501   2.913   3.109   1.864  0.1309  0.4730 -0.0238
 1125SOL     OW 4502   2.732   3.254   1.978  0.1542  0.6474 -0.1533
 1125SOL    HW2 4503   2.731   3.334   1.925 -0.6208  2.2094  2.1002
 1125SOL    HW3 4504   2.660   3.202   1.945  0.8395  0.7451 -1.8446
 1125SOL    MW4 4505   2.723   3.258   1.967  0.1424  0.8664 -0.0791
 1126SOL     OW 4506   2.661   3.485   1.841 -0.2346  0.2080  0.4057
 1126SOL    HW2 4507   2.733   3.530   1.886 -0.6987  0.5125  0.8474
 1126SOL    HW3 4508   2.583   3.510   1.890 -0.5389 -0.7988  0.4419
 1126SOL    MW4 4509   2.660   3.494   1.853 -0.3360  0.1153  0.4687
 1127SOL     OW 4510   2.892   3.599   1.946  0.1070 -0.6114  0.5000
 1127SOL    HW2 4511   2.884   3.618   2.040 -0.4230 -0.2571  0.3877
 1127SOL    HW3 4512   2.980   3.564   1.936  0.6734  0.6455  0.9148
 1127SOL    MW4 4513   2.903   3.597   1.957  0.1118 -0.3988  0.5399
 1128SOL     OW 4514   2.920   3.891   1.835 -0.0970  0.3757 -0.6895
 1128SOL    HW2 4515   2.924   3.799   1.861 -1.2921  0.5142  0.0887
 1128SOL    HW3 4516   2.922   3.890   1.740 -0.5557 -0.4924 -0.6947
 1128SOL    MW4 4517   2.921   3.879   1.826 -0.3152  0.2794 -0.5876
 1129SOL     OW 4518   2.693   4.001   1.955  0.0304  0.4084  0.4669
 1129SOL    HW2 4519   2.764   3.955   1.910 -0.2250 -0.0541  0.5336
 1129SOL    HW3 4520   2.613   3.960   1.923 -0.1967  0.7667  0.5723
 1129SOL    MW4 4521   2.692   3.990   1.945 -0.0333  0.3946  0.4896
 1130SOL     OW 4522   2.682   4.262   1.887  0.3256  0.0276 -0.2695
 1130SOL    HW2 4523   2.689   4.170   1.914 -1.4427 -0.4360 -1.2807
 1130SOL    HW3 4524   2.697   4.259   1.792  1.0922  0.8918 -0.1733
 1130SOL    MW4 4525   2.685   4.249   1.878  0.1935  0.0804 -0.3902
 1131SOL     OW 4526   2.903   4.418   1.979  0.2712 -0.3075 -0.1746
 1131SOL    HW2 4527   2.879   4.428   2.071  0.2805  0.5967 -0.2632
 1131SOL    HW3 4528   2.822   4.392   1.935  0.0313  0.2486 -0.0667
 1131SOL    MW4 4529   2.890   4.416   1.985  0.2407 -0.1148 -0.1721
 1132SOL     OW 4530   3.401   0.012   1.890 -0.4872  0.1105 -0.3246
 1132SOL    HW2 4531   3.391  -0.075   1.928  1.5812 -0.3255 -0.6682
 1132SOL    HW3 4532   3.387  -0.001   1.797  1.0863 -0.1497 -0.5547
 1132SOL    MW4 4533   3.398  -0.001   1.883 -0.0067  0.0186 -0.4003
 1133SOL     OW 4534   3.172   0.124   1.966 -0.0043 -0.4503 -0.5956
 1133SOL    HW2 4535   3.168   0.139   2.060 -0.1001  0.5431 -0.7542
 1133SOL    HW3 4536   3.260   0.087   1.951  0.3445  0.2225 -0.2324
 1133SOL    MW4 4537   3.183   0.121   1.977  0.0291 -0.2304 -0.5686
 1134SOL     OW 4538   3.147   0.383   1.899 -0.2379 -0.5717 -0.1243
 1134SOL    HW2 4539   3.166   0.291   1.919  0.4355 -0.5846 -0.7968
 1134SOL    HW3 4540   3.144   0.386   1.803 -1.2632 -0.0905 -0.0743
 1134SOL    MW4 4541   3.149   0.371   1.889 -0.2843 -0.5099 -0.2064
 1135SOL     OW 4542   3.348   0.503   2.017 -0.2254 -0.2020 -0.2961
 1135SOL    HW2 4543   3.423   0.457   1.979  0.6879  1.5784 -0.6708
 1135SOL    HW3 4544   3.272   0.463   1.973  0.5229 -1.5875 -0.3575
 1135SOL    MW4 4545   3.348   0.491   2.006 -0.0062 -0.1499 -0.3536
 1136SOL     OW 4546   3.354   0.747   1.878  0.1129 -0.5585 -0.0422
 1136SOL    HW2 4547   3.284   0.787   1.929 -0.0186 -1.6267  0.6320
 1136SOL    HW3 4548   3.367   0.661   1.918  2.7109  0.1348  0.6527
 1136SOL    MW4 4549   3.346   0.741   1.890  0.4383 -0.6080  0.1384
 1137SOL     OW 4550   3.124   0.826   2.008 -0.2777  0.2076  0.0742
 1137SOL    HW2 4551   3.123   0.832   2.103  0.7625  1.4597  0.0178
 1137SOL    HW3 4552   3.144   0.915   1.978  1.0640 -0.5059 -1.2487
 1137SOL    MW4 4553   3.127   0.839   2.017  0.0365  0.2787 -0.1078
 1138SOL     OW 4554   3.161   1.086   1.908 -0.1649 -0.1132  0.3168
 1138SOL    HW2 4555   3.242   1.133   1.929  0.2592 -1.0671  0.8851
 1138SOL    HW3 4556   3.091   1.143   1.938  0.2763  0.9125 -0.5551
 1138SOL    MW4 4557   3.163   1.099   1.914 -0.0507 -0.1037  0.2767
 1139SOL     OW 4558   3.364   1.253   2.000  0.0793  0.1179  0.1228
 1139SOL    HW2 4559   3.364   1.271   2.094  0.2004  0.0104  0.1428
 1139SOL    HW3 4560   3.353   1.339   1.959 -1.2470  0.0350  0.2685
 1139SOL    MW4 4561   3.362   1.266   2.007 -0.0797  0.0928  0.1446
 1140SOL     OW 4562   3.365   1.523   1.882  0.1857  0.3217 -0.1668
 1140SOL    HW2 4563   3.439   1.550   1.937  0.4122 -1.4098  0.4355
 1140SOL    HW3 4564   3.290   1.570   1.917  0.8591  1.4790 -0.2608
 1140SOL    MW4 4565   3.365   1.532   1.893  0.3044  0.2460 -0.0997
 1141SOL     OW 4566   3.151   1.646   2.004 -0.3631 -0.6942  0.1446
 1141SOL    HW2 4567   3.141   1.663   2.098 -2.8091  0.0774 -0.2349
 1141SOL    HW3 4568   3.131   1.729   1.962 -0.5415 -1.3778 -1.1455
 1141SOL    MW4 4569   3.147   1.659   2.011 -0.7093 -0.6826 -0.0757
 1142SOL     OW 4570   3.111   1.914   1.866  0.1584  0.6355  0.3690
 1142SOL    HW2 4571   3.184   1.967   1.898  0.6271 -0.0763  0.4731
 1142SOL    HW3 4572   3.125   1.908   1.772 -0.4981  1.6096  0.1929
 1142SOL    MW4 4573   3.122   1.920   1.858  0.1336  0.6701  0.3595
 1143SOL     OW 4574   3.359   2.016   1.992 -0.1155  0.4034  0.3559
 1143SOL    HW2 4575   3.444   1.977   1.969 -0.4896 -0.3914  0.3162
 1143SOL    HW3 4576   3.366   2.107   1.962 -0.4090 -0.4593 -2.5095
 1143SOL    MW4 4577   3.371   2.023   1.985 -0.2036  0.1847 -0.0274
 1144SOL     OW 4578   3.371   2.274   1.903  0.1288  0.3835  0.7642
 1144SOL    HW2 4579   3.296   2.324   1.934 -1.0073 -0.6870 -0.2003
 1144SOL    HW3 4580   3.383   2.303   1.812 -0.7688 -1.3275  0.0733
 1144SOL    MW4 4581   3.363   2.284   1.895 -0.1395  0.0165  0.5458
 1145SOL     OW 4582   3.135   2.414   1.969 -0.1349  0.2029  0.0550
 1145SOL    HW2 4583   3.134   2.426   2.064 -1.3615  0.1238  0.0666
 1145SOL    HW3 4584   3.122   2.502   1.934 -0.3219  0.1440 -0.0251
 1145SOL    MW4 4585   3.133   2.427   1.977 -0.3214  0.1847  0.0459
 1146SOL     OW 4586   3.125   2.686   1.874 -0.1336 -0.1126 -0.2492
 1146SOL    HW2 4587   3.051   2.744   1.892 -1.3455 -1.2764 -1.3022
 1146SOL    HW3 4588   3.134   2.688   1.779  2.1230  1.0989 -0.0414
 1146SOL    MW4 4589   3.116   2.694   1.864  0.0042 -0.1063 -0.3607
 1147SOL     OW 4590   3.354   2.829   1.954  0.2019 -0.4175  0.0635
 1147SOL    HW2 4591   3.368   2.847   2.047  0.8973 -0.0405 -0.1103
 1147SOL    HW3 4592   3.273   2.777   1.952 -0.3374  0.3697  0.7938
 1147SOL    MW4 4593   3.345   2.824   1.966  0.2225 -0.2639  0.1370
 1148SOL     OW 4594   3.350   3.087   1.859  0.0081  0.5364  0.3810
 1148SOL    HW2 4595   3.423   3.127   1.907  0.6452  0.5073 -0.5358
 1148SOL    HW3 4596   3.352   2.995   1.885 -0.4003  0.7589  1.2059
 1148SOL    MW4 4597   3.360   3.080   1.868  0.0383  0.5619  0.3689
 1149SOL     OW 4598   3.139   3.208   1.983  0.3659 -0.2631  0.3796
 1149SOL    HW2 4599   3.143   3.303   1.967 -0.7338 -0.0860  1.0595
 1149SOL    HW3 4600   3.221   3.174   1.948 -1.0874  0.3505 -3.9123
 1149SOL    MW4 4601   3.150   3.216   1.976  0.0290 -0.1588 -0.0970
 1150SOL     OW 4602   3.149   3.489   1.891 -0.2032  0.9572  0.7168
 1150SOL    HW2 4603   3.227   3.522   1.935  0.0338  0.3268  0.7604
 1150SOL    HW3 4604   3.168   3.498   1.798  0.4670 -0.5000  0.7164
 1150SOL    MW4 4605   3.162   3.495   1.885 -0.0835  0.6818  0.7225
 1151SOL     OW 4606   3.370   3.618   2.012  0.2001  0.0735 -0.3295
 1151SOL    HW2 4607   3.451   3.576   1.982  0.0665 -0.8328  0.5355
 1151SOL    HW3 4608   3.367   3.702   1.967  0.6211 -0.7479 -1.8956
 1151SOL    MW4 4609   3.380   3.623   2.002  0.2381 -0.1545 -0.4220
 1152SOL     OW 4610   3.361   3.856   1.867 -0.0480  0.1635 -0.4204
 1152SOL    HW2 4611   3.284   3.910   1.882  0.3358  0.3248  0.9976
 1152SOL    HW3 4612   3.368   3.850   1.772 -1.6134  0.4189 -0.5566
 1152SOL    MW4 4613   3.352   3.862   1.856 -0.2039  0.2185 -0.2513
 1153SOL     OW 4614   3.142   4.013   1.938 -0.8078  0.1169 -0.6434
 1153SOL    HW2 4615   3.132   4.015   2.033 -1.2744 -2.1125 -0.6176
 1153SOL    HW3 4616   3.058   3.978   1.906 -0.3726  0.1341 -1.8082
 1153SOL    MW4 4617   3.129   4.008   1.946 -0.8120 -0.1749 -0.7937
 1154SOL     OW 4618   3.139   4.289   1.881 -0.7320  0.0429 -0.2866
 1154SOL    HW2 4619   3.141   4.202   1.920  0.3803  0.4086  0.5220
 1154SOL    HW3 4620   3.055   4.326   1.909 -0.9293 -0.5361 -0.1127
 1154SOL    MW4 4621   3.128   4.283   1.890 -0.6112  0.0148 -0.1569
 1155SOL     OW 4622   3.377   4.429   1.977  0.1840  0.0404 -0.0029
 1155SOL    HW2 4623   3.443   4.363   1.956  0.2104  0.4519 -1.2369
 1155SOL    HW3 4624   3.297   4.396   1.937  0.1800  0.7105 -0.5540
 1155SOL    MW4 4625   3.375   4.416   1.969  0.1869  0.1831 -0.2384
 1156SOL     OW 4626   3.869   4.654   1.882 -0.2918  0.4694  0.6843
 1156SOL    HW2 4627   3.861   4.559   1.895  1.0016  0.1908 -0.4306
 1156SOL    HW3 4628   3.780   4.688   1.896 -0.7558 -0.8975  1.1358
 1156SOL    MW4 4629   3.856   4.646   1.886 -0.1824  0.2523  0.5968
 1157SOL     OW 4630   3.649   0.122   1.968  0.5465  0.1224 -0.3652
 1157SOL    HW2 4631   3.652   0.120   2.063  0.2627 -1.9411 -0.3773
 1157SOL    HW3 4632   3.573   0.068   1.945  1.1066 -0.0900 -1.7790
 1157SOL    MW4 4633   3.639   0.114   1.977  0.5829 -0.1779 -0.5533
 1158SOL     OW 4634   3.559   0.376   1.897 -0.1898  0.1215 -0.0331
 1158SOL    HW2 4635   3.564   0.282   1.915 -1.4837  0.0684  0.1280
 1158SOL    HW3 4636   3.559   0.382   1.801 -1.7475 -0.1700 -0.0711
 1158SOL    MW4 4637   3.559   0.364   1.887 -0.5661  0.0761 -0.0169
 1159SOL     OW 4638   3.807   0.451   2.013  0.1500  0.0273  0.3587
 1159SOL    HW2 4639   3.804   0.532   1.961  0.6323 -0.1042  0.1232
 1159SOL    HW3 4640   3.727   0.404   1.988 -0.0969  0.3935  0.4396
 1159SOL    MW4 4641   3.796   0.456   2.002  0.1811  0.0583  0.3383
 1160SOL     OW 4642   3.808   0.717   1.883 -0.3631  0.3201 -0.3542
 1160SOL    HW2 4643   3.738   0.777   1.911  0.4135  1.3983 -0.7097
 1160SOL    HW3 4644   3.810   0.725   1.788  1.0513  1.2097 -0.2583
 1160SOL    MW4 4645   3.799   0.726   1.874 -0.0740  0.5798 -0.3885
 1161SOL     OW 4646   3.589   0.871   1.948 -0.9150  0.0697 -0.4609
 1161SOL    HW2 4647   3.570   0.965   1.940 -1.4498 -0.0025 -0.1259
 1161SOL    HW3 4648   3.509   0.828   1.918 -0.6696 -0.2778 -0.6171
 1161SOL    MW4 4649   3.576   0.878   1.943 -0.9532  0.0144 -0.4373
 1162SOL     OW 4650   3.600   1.150   1.895  0.1957 -0.5668  0.4721
 1162SOL    HW2 4651   3.526   1.204   1.923 -0.1530 -1.0169  0.4232
 1162SOL    HW3 4652   3.592   1.146   1.800  0.1551 -0.7979  0.4851
 1162SOL    MW4 4653   3.589   1.157   1.886  0.1444 -0.6566  0.4673
 1163SOL     OW 4654   3.821   1.273   1.983 -0.1160  0.2761  0.0130
 1163SOL    HW2 4655   3.808   1.273   2.078  1.8305 -0.3472  0.3043
 1163SOL    HW3 4656   3.752   1.216   1.949 -0.5373  0.1380  1.0864
 1163SOL    MW4 4657   3.810   1.266   1.991  0.0853  0.1756  0.1931
 1164SOL     OW 4658   3.816   1.540   1.871  0.0824 -0.3479 -0.2519
 1164SOL    HW2 4659   3.893   1.591   1.895 -1.0996  0.2453  2.4750
 1164SOL    HW3 4660   3.825   1.458   1.919 -1.9784  0.5619  1.7875
 1164SOL    MW4 4661   3.827   1.536   1.881 -0.3454 -0.1496  0.3769
 1165SOL     OW 4662   3.591   1.632   2.002 -0.1444  0.3874 -0.1744
 1165SOL    HW2 4663   3.594   1.723   1.974  0.2329  0.3287 -0.3410
 1165SOL    HW3 4664   3.667   1.592   1.959  1.2081  0.5853  1.9501
 1165SOL    MW4 4665   3.602   1.639   1.992  0.0838  0.4058  0.0839
 1166SOL     OW 4666   3.617   1.899   1.907 -0.0185  0.3429 -0.3461
 1166SOL    HW2 4667   3.682   1.957   1.947  0.8916 -0.2258 -0.9930
 1166SOL    HW3 4668   3.634   1.904   1.813  0.7050 -1.7064 -0.3480
 1166SOL    MW4 4669   3.628   1.908   1.900  0.1970 -0.0025 -0.4317
 1167SOL     OW 4670   3.824   2.075   1.959 -0.2428 -0.2038  0.8709
 1167SOL    HW2 4671   3.903   2.031   1.928 -0.4111  0.1029  0.0115
 1167SOL    HW3 4672   3.836   2.167   1.936 -0.6533 -0.0775  1.1390
 1167SOL    MW4 4673   3.836   2.082   1.952 -0.3192 -0.1467  0.7929
 1168SOL     OW 4674   3.836   2.336   1.879  0.3281  0.2345 -0.6404
 1168SOL    HW2 4675   3.901   2.386   1.927  0.9066 -2.2951  1.2784
 1168SOL    HW3 4676   3.752   2.366   1.913  0.6096  1.1445 -0.7550
 1168SOL    MW4 4677   3.833   2.346   1.890  0.4415  0.0208 -0.4024
 1169SOL     OW 4678   3.602   2.423   1.994 -0.1892 -0.5709  0.0419
 1169SOL    HW2 4679   3.590   2.510   1.956  2.2189 -1.1943 -2.3609
 1169SOL    HW3 4680   3.526   2.373   1.963 -1.1924  0.4576  0.8091
 1169SOL    MW4 4681   3.590   2.428   1.985 -0.0039 -0.5175 -0.1739
 1170SOL     OW 4682   3.573   2.676   1.882 -0.3574 -0.3079  0.2075
 1170SOL    HW2 4683   3.645   2.731   1.911 -0.7852  0.7434 -0.6649
 1170SOL    HW3 4684   3.494   2.723   1.908 -0.7329 -0.6561 -0.2728
 1170SOL    MW4 4685   3.572   2.689   1.889 -0.4634 -0.2151  0.0290
 1171SOL     OW 4686   3.798   2.810   1.996  0.0026 -0.1190 -0.3348
 1171SOL    HW2 4687   3.811   2.842   2.085 -0.3290  1.2551 -0.7696
 1171SOL    HW3 4688   3.792   2.889   1.942  0.1566 -0.9286 -1.5773
 1171SOL    MW4 4689   3.799   2.825   2.001 -0.0208 -0.0445 -0.5561
 1172SOL     OW 4690   3.777   3.052   1.870  0.1808  0.0816  0.0620
 1172SOL    HW2 4691   3.699   3.094   1.905  0.3996  0.5798 -0.0460
 1172SOL    HW3 4692   3.768   3.060   1.775  0.1866 -0.1844  0.0372
 1172SOL    MW4 4693   3.766   3.058   1.862  0.2104  0.1122  0.0445
 1173SOL     OW 4694   3.575   3.201   1.990 -0.4910 -0.3818 -0.0216
 1173SOL    HW2 4695   3.575   3.196   2.085 -0.1508 -0.1547 -0.0104
 1173SOL    HW3 4696   3.575   3.294   1.970 -0.6898 -0.4287 -0.2435
 1173SOL    MW4 4697   3.575   3.213   2.000 -0.4724 -0.3580 -0.0494
 1174SOL     OW 4698   3.576   3.455   1.881  0.0432  0.5725  0.1770
 1174SOL    HW2 4699   3.659   3.493   1.910  0.0309  0.5335  0.2629
 1174SOL    HW3 4700   3.571   3.477   1.788  1.4768 -1.7842 -0.5042
 1174SOL    MW4 4701   3.586   3.463   1.872  0.2307  0.2564  0.0984
 1175SOL     OW 4702   3.808   3.575   1.987  0.1385 -0.6175 -0.4504
 1175SOL    HW2 4703   3.886   3.531   1.953  0.0433  0.0442 -1.5460
 1175SOL    HW3 4704   3.829   3.668   1.983 -0.1253 -0.4954  0.7221
 1175SOL    MW4 4705   3.821   3.582   1.982  0.0911 -0.5141 -0.4403
 1176SOL     OW 4706   3.821   3.841   1.905  0.4645 -0.0479 -0.1867
 1176SOL    HW2 4707   3.741   3.890   1.924 -0.0884 -1.2696  0.7297
 1176SOL    HW3 4708   3.823   3.833   1.810  0.1885  1.1101 -0.3033
 1176SOL    MW4 4709   3.811   3.847   1.895  0.3551 -0.0563 -0.0812
 1177SOL     OW 4710   3.589   3.994   1.994  0.5058  0.8263  0.0399
 1177SOL    HW2 4711   3.585   3.985   2.090 -0.4785  1.2855  0.0472
 1177SOL    HW3 4712   3.517   3.941   1.962  1.2378  0.1396 -0.5003
 1177SOL    MW4 4713   3.579   3.986   2.003  0.4725  0.7963 -0.0304
 1178SOL     OW 4714   3.578   4.258   1.910  0.4016  0.1358 -0.0026
 1178SOL    HW2 4715   3.660   4.297   1.940  0.7125  0.3444 -1.1101
 1178SOL    HW3 4716   3.587   4.164   1.930  0.5388  0.2847  0.6651
 1178SOL    MW4 4717   3.590   4.250   1.917  0.4607  0.1830 -0.0606
 1179SOL     OW 4718   3.802   4.389   1.985  0.1956 -0.0202  0.2799
 1179SOL    HW2 4719   3.794   4.362   2.077  0.4364  2.2120  0.9852
 1179SOL    HW3 4720   3.891   4.364   1.960 -0.1094 -1.2830  0.4235
 1179SOL    MW4 4721   3.813   4.382   1.994  0.1871  0.1077  0.3919
 1180SOL     OW 4722   4.309   4.598   1.905 -0.5978  0.0974 -0.4981
 1180SOL    HW2 4723   4.242   4.649   1.951 -0.9304 -0.9824  0.2410
 1180SOL    HW3 4724   4.392   4.629   1.940 -0.8426 -0.5605  0.6761
 1180SOL    MW4 4725   4.311   4.609   1.916 -0.6740 -0.1319 -0.2457
 1181SOL     OW 4726   4.110   0.100   1.994  0.3294 -0.0792  0.2611
 1181SOL    HW2 4727   4.092   0.114   2.087 -0.3600 -1.1935  0.3073
 1181SOL    HW3 4728   4.026   0.072   1.958  0.4621  0.9115 -0.8149
 1181SOL    MW4 4729   4.096   0.098   2.002  0.2559 -0.0955  0.1252
 1182SOL     OW 4730   4.043   0.350   1.904  0.2618  0.0075 -0.4449
 1182SOL    HW2 4731   4.057   0.260   1.935  1.5813 -0.7412 -3.0299
 1182SOL    HW3 4732   3.967   0.381   1.952  1.3874 -1.5682  2.4319
 1182SOL    MW4 4733   4.035   0.342   1.914  0.5844 -0.2992 -0.4064
 1183SOL     OW 4734   4.273   0.467   2.003 -0.5731 -0.5037 -0.2719
 1183SOL    HW2 4735   4.270   0.471   2.098 -0.7422 -1.0065 -0.2580
 1183SOL    HW3 4736   4.193   0.421   1.977 -2.5679  3.1611 -0.8840
 1183SOL    MW4 4737   4.262   0.461   2.012 -0.8586 -0.0865 -0.3508
 1184SOL     OW 4738   4.267   0.735   1.914  0.6099 -0.5034 -0.2998
 1184SOL    HW2 4739   4.268   0.643   1.941 -0.9102 -0.4110  0.1115
 1184SOL    HW3 4740   4.277   0.732   1.819 -0.2141 -1.1415 -0.3759
 1184SOL    MW4 4741   4.268   0.722   1.905  0.3006 -0.5754 -0.2555
 1185SOL     OW 4742   4.021   0.867   1.922 -0.1287 -0.1113 -0.1466
 1185SOL    HW2 4743   4.100   0.816   1.908 -0.3300 -1.0707  1.9900
 1185SOL    HW3 4744   3.950   0.809   1.895 -0.2190  0.0906 -0.3521
 1185SOL    MW4 4745   4.022   0.853   1.916 -0.1671 -0.2113  0.1082
 1186SOL     OW 4746   4.023   1.141   1.865  0.2023 -0.1684  0.3192
 1186SOL    HW2 4747   4.011   1.052   1.899  1.1943 -0.1193  0.8093
 1186SOL    HW3 4748   3.954   1.192   1.906 -0.2876 -0.6848  0.1388
 1186SOL    MW4 4749   4.012   1.136   1.875  0.2686 -0.2301  0.3600
 1187SOL     OW 4750   4.258   1.280   1.951 -0.2025  0.2802  0.7377
 1187SOL    HW2 4751   4.259   1.266   2.046 -0.6625  0.8144  0.8249
 1187SOL    HW3 4752   4.185   1.227   1.920  0.6821 -0.8232  0.5290
 1187SOL    MW4 4753   4.249   1.271   1.959 -0.1464  0.2051  0.7217
 1188SOL     OW 4754   4.268   1.556   1.906  0.0630 -0.2322 -0.2248
 1188SOL    HW2 4755   4.250   1.464   1.923  0.6125 -0.2963 -0.0040
 1188SOL    HW3 4756   4.291   1.559   1.813  1.3221 -0.5096  0.0696
 1188SOL    MW4 4757   4.268   1.544   1.896  0.3017 -0.2773 -0.1568
 1189SOL     OW 4758   4.024   1.667   1.990  0.4002  0.2854 -0.2247
 1189SOL    HW2 4759   4.025   1.670   2.086  0.0784  0.1921 -0.2186
 1189SOL    HW3 4760   4.106   1.623   1.966  1.1097  1.4503 -0.0320
 1189SOL    MW4 4761   4.035   1.662   2.000  0.4514  0.4267 -0.1985
 1190SOL     OW 4762   4.055   1.928   1.887  0.1989 -0.2064 -0.5052
 1190SOL    HW2 4763   4.038   1.836   1.909 -1.0685  0.1679  0.0854
 1190SOL    HW3 4764   4.069   1.927   1.792 -0.3385 -0.9376 -0.5831
 1190SOL    MW4 4765   4.055   1.916   1.877 -0.0392 -0.2535 -0.4375
 1191SOL     OW 4766   4.298   2.013   1.979 -0.4820 -0.2486 -0.5480
 1191SOL    HW2 4767   4.285   1.995   2.073 -1.6987  2.0017 -0.2426
 1191SOL    HW3 4768   4.218   1.981   1.938  0.2414 -1.6436 -0.9079
 1191SOL    MW4 4769   4.285   2.006   1.986 -0.5471 -0.1357 -0.5552
 1192SOL     OW 4770   4.263   2.277   1.906 -0.0566 -0.1748 -0.3827
 1192SOL    HW2 4771   4.268   2.193   1.951  0.9213  0.2660  0.3719
 1192SOL    HW3 4772   4.354   2.309   1.905  0.1110 -0.5865 -3.4856
 1192SOL    MW4 4773   4.276   2.270   1.912  0.0945 -0.1710 -0.6926
 1193SOL     OW 4774   4.055   2.461   1.986  0.6784  0.2179  0.0967
 1193SOL    HW2 4775   4.053   2.437   2.079  0.0809  0.5212  0.1627
 1193SOL    HW3 4776   4.135   2.421   1.953  1.3279  0.8353  0.9381
 1193SOL    MW4 4777   4.065   2.452   1.994  0.6853  0.3394  0.2164
 1194SOL     OW 4778   4.017   2.718   1.874  0.4806 -0.3485  0.1805
 1194SOL    HW2 4779   4.038   2.630   1.906  1.0480 -0.4677 -0.5169
 1194SOL    HW3 4780   3.947   2.748   1.932  0.3389 -1.2287  0.4761
 1194SOL    MW4 4781   4.011   2.710   1.886  0.5368 -0.4804  0.1275
 1195SOL     OW 4782   4.268   2.810   1.969 -0.0437 -0.1432 -0.4718
 1195SOL    HW2 4783   4.272   2.816   2.064  0.2371 -0.7119 -0.4452
 1195SOL    HW3 4784   4.181   2.775   1.950 -0.6449  1.3252 -0.4973
 1195SOL    MW4 4785   4.257   2.806   1.979 -0.0860 -0.0245 -0.4716
 1196SOL     OW 4786   4.251   3.060   1.874 -0.5027 -0.6989  0.3579
 1196SOL    HW2 4787   4.165   3.096   1.899  0.6445  1.3817  1.4383
 1196SOL    HW3 4788   4.250   2.971   1.909 -1.5027 -0.0381  2.0794
 1196SOL    MW4 4789   4.239   3.053   1.882 -0.4833 -0.3372  0.7276
 1197SOL     OW 4790   4.007   3.182   1.962  0.1360  0.8550  0.0211
 1197SOL    HW2 4791   4.001   3.179   2.057 -0.5686  0.9062 -0.0204
 1197SOL    HW3 4792   3.927   3.139   1.931  1.1215 -0.6113 -0.5502
 1197SOL    MW4 4793   3.996   3.176   1.970  0.1731  0.6683 -0.0597
 1198SOL     OW 4794   4.029   3.443   1.869  0.1774 -0.2480  0.0187
 1198SOL    HW2 4795   4.099   3.481   1.922 -1.3032  0.5715  1.4108
 1198SOL    HW3 4796   4.009   3.360   1.912 -0.8629  0.3100  0.6245
 1198SOL    MW4 4797   4.036   3.437   1.882 -0.1552 -0.0662  0.2823
 1199SOL     OW 4798   4.238   3.596   2.002 -0.1554 -0.3298  0.0209
 1199SOL    HW2 4799   4.217   3.685   1.974  0.0994 -0.4089 -0.4209
 1199SOL    HW3 4800   4.330   3.584   1.977 -0.1455 -0.6611  0.2202
 1199SOL    MW4 4801   4.247   3.606   1.995 -0.1205 -0.3839 -0.0111
 1200SOL     OW 4802   4.219   3.866   1.898 -0.0806 -0.1148 -0.1361
 1200SOL    HW2 4803   4.302   3.908   1.919  0.6352 -1.6436  0.1300
 1200SOL    HW3 4804   4.215   3.866   1.802  0.2469 -0.1021 -0.1483
 1200SOL    MW4 4805   4.229   3.872   1.888  0.0570 -0.3148 -0.1026
 1201SOL     OW 4806   3.996   4.018   1.993  0.1144  0.5554  0.0234
 1201SOL    HW2 4807   4.078   3.977   1.966  0.2399  0.3980  0.6452
 1201SOL    HW3 4808   3.928   3.957   1.964  0.2920 -0.0180  0.8066
 1201SOL    MW4 4809   3.998   4.005   1.985  0.1544  0.4590  0.2088
 1202SOL     OW 4810   4.024   4.268   1.873 -0.0398 -0.6725  0.4210
 1202SOL    HW2 4811   4.102   4.300   1.917 -1.0585 -0.5816  2.2538
 1202SOL    HW3 4812   4.007   4.182   1.913 -0.3471 -1.1162 -0.6304
 1202SOL    MW4 4813   4.032   4.261   1.884 -0.2148 -0.7191  0.5241
 1203SOL     OW 4814   4.270   4.341   1.978 -0.3088  0.5204 -0.1629
 1203SOL    HW2 4815   4.263   4.351   2.073  0.5722  0.2770 -0.0666
 1203SOL    HW3 4816   4.295   4.428   1.946  0.3685  0.3670 -0.0637
 1203SOL    MW4 4817   4.273   4.354   1.986 -0.1032  0.4680 -0.1371
 1204SOL     OW 4818   0.247   4.610   2.334  0.2357 -0.0495  0.2474
 1204SOL    HW2 4819   0.246   4.619   2.430 -1.1496  0.0344  0.2269
 1204SOL    HW3 4820   0.309   4.677   2.305  0.8514 -0.2356  1.0992
 1204SOL    MW4 4821   0.255   4.620   2.343  0.1342 -0.0630  0.3571
 1205SOL     OW 4822   0.022   0.089   2.293 -0.0157 -0.7408  0.4102
 1205SOL    HW2 4823   0.100   0.039   2.315  1.0829  0.5400 -0.5289
 1205SOL    HW3 4824   0.021   0.092   2.198 -0.0975  0.9425  0.4417
 1205SOL    MW4 4825   0.032   0.083   2.284  0.1184 -0.3497  0.2904
 1206SOL     OW 4826   4.470   0.366   2.373  0.3512 -0.5032  0.1432
 1206SOL    HW2 4827   4.539   0.418   2.333  0.4231  0.0207  0.9309
 1206SOL    HW3 4828   4.479   0.279   2.334  0.9452 -0.2243 -0.3450
 1206SOL    MW4 4829   4.480   0.361   2.363  0.4391 -0.3973  0.1827
 1207SOL     OW 4830   0.194   0.505   2.269  0.1423 -0.1354 -0.0768
 1207SOL    HW2 4831   0.277   0.461   2.288 -0.0671 -0.7675 -0.5969
 1207SOL    HW3 4832   0.194   0.516   2.174 -0.0434  0.5194 -0.0017
 1207SOL    MW4 4833   0.205   0.501   2.259  0.0902 -0.1324 -0.1355
 1208SOL     OW 4834   0.213   0.761   2.362 -0.3521 -0.2136 -0.0034
 1208SOL    HW2 4835   0.213   0.765   2.458  0.5162 -0.4887  0.0114
 1208SOL    HW3 4836   0.201   0.668   2.342 -0.4009 -0.1723 -0.1641
 1208SOL    MW4 4837   0.212   0.749   2.372 -0.2440 -0.2444 -0.0227
 1209SOL     OW 4838   4.465   0.879   2.272  0.2227  0.1875 -0.2546
 1209SOL    HW2 4839   4.546   0.834   2.296  2.1222  2.7797 -1.4851
 1209SOL    HW3 4840   4.471   0.890   2.177 -2.0634 -0.4582 -0.5028
 1209SOL    MW4 4841   4.477   0.874   2.263  0.1717  0.4443 -0.4497
 1210SOL     OW 4842   4.470   1.158   2.349 -0.1122 -0.5918  0.3689
 1210SOL    HW2 4843   4.477   1.166   2.444 -0.8113 -2.2137  0.5793
 1210SOL    HW3 4844   4.472   1.063   2.333 -0.2967 -0.3408 -1.2020
 1210SOL    MW4 4845   4.472   1.146   2.359 -0.2288 -0.7726  0.1894
 1211SOL     OW 4846   0.219   1.251   2.253  0.5460 -0.1228  0.2627
 1211SOL    HW2 4847   0.132   1.213   2.267  0.5992  0.3140  1.9119
 1211SOL    HW3 4848   0.222   1.269   2.159 -0.9351 -0.6394  0.0914
 1211SOL    MW4 4849   0.208   1.248   2.243  0.3576 -0.1333  0.4577
 1212SOL     OW 4850   0.234   1.518   2.329 -0.0425 -0.2179  0.2804
 1212SOL    HW2 4851   0.242   1.522   2.424 -1.2803 -1.6105  0.4567
 1212SOL    HW3 4852   0.231   1.424   2.309  0.7984  0.0465 -1.1870
 1212SOL    MW4 4853   0.235   1.506   2.339 -0.0948 -0.3667  0.1100
 1213SOL     OW 4854   4.487   1.659   2.292 -0.0060 -0.2547 -0.0379
 1213SOL    HW2 4855   4.488   1.733   2.353 -0.4254  0.0257 -0.3704
 1213SOL    HW3 4856   4.557   1.601   2.323 -0.5045 -0.3159  0.9544
 1213SOL    MW4 4857   4.496   1.661   2.304 -0.1271 -0.2258  0.0491
 1214SOL     OW 4858   4.457   1.910   2.414 -0.2831  0.3732 -0.3905
 1214SOL    HW2 4859   4.382   1.936   2.361  1.1631 -1.3873 -3.4551
 1214SOL    HW3 4860   4.532   1.951   2.371  0.7417  0.6549  1.5966
 1214SOL    MW4 4861   4.457   1.919   2.402  0.0429  0.1781 -0.5327
 1215SOL     OW 4862   0.184   2.030   2.269  0.2246 -0.5782 -0.2239
 1215SOL    HW2 4863   0.266   1.997   2.306 -0.2153 -1.5109 -0.0536
 1215SOL    HW3 4864   0.204   2.048   2.178  0.6775 -0.5961 -0.1293
 1215SOL    MW4 4865   0.198   2.028   2.262  0.2264 -0.7036 -0.1890
 1216SOL     OW 4866   0.188   2.300   2.333 -0.4113  0.0508  0.6217
 1216SOL    HW2 4867   0.192   2.318   2.426  1.2857  0.6668  0.4547
 1216SOL    HW3 4868   0.189   2.204   2.327  1.3127  0.0240  1.1914
 1216SOL    MW4 4869   0.189   2.289   2.344  0.0401  0.1286  0.6748
 1217SOL     OW 4870   4.468   2.425   2.231 -0.1042  0.3573  0.6615
 1217SOL    HW2 4871   4.444   2.503   2.282 -0.7441 -0.3030  1.3764
 1217SOL    HW3 4872   4.542   2.387   2.280  0.7464  0.9622 -0.1346
 1217SOL    MW4 4873   4.475   2.431   2.244 -0.0764  0.3500  0.6508
 1218SOL     OW 4874   4.445   2.694   2.371 -0.0799 -0.3064 -0.3802
 1218SOL    HW2 4875   4.458   2.689   2.465  1.0317 -0.1248 -0.5187
 1218SOL    HW3 4876   4.533   2.705   2.335 -0.4568 -0.7428 -1.4621
 1218SOL    MW4 4877   4.458   2.695   2.378  0.0171 -0.3400 -0.5412
 1219SOL     OW 4878   0.214   2.801   2.270  0.2975  0.1527  0.1993
 1219SOL    HW2 4879   0.292   2.752   2.293  0.0376 -0.4845 -0.2573
 1219SOL    HW3 4880   0.215   2.803   2.174  0.0657  0.6466  0.2052
 1219SOL    MW4 4881   0.225   2.795   2.260  0.2327  0.1338  0.1399
 1220SOL     OW 4882   0.206   3.059   2.388 -0.1927 -0.1473  0.0241
 1220SOL    HW2 4883   0.126   3.092   2.346  0.4282 -0.4630 -1.4363
 1220SOL    HW3 4884   0.215   2.970   2.356  0.9010 -0.0212 -0.0370
 1220SOL    MW4 4885   0.196   3.052   2.378  0.0335 -0.1723 -0.1766
 1221SOL     OW 4886   0.001   3.209   2.284 -0.5133  0.3985  0.2030
 1221SOL    HW2 4887   0.005   3.300   2.314 -2.6091  0.6550 -0.2238
 1221SOL    HW3 4888  -0.004   3.215   2.189  1.6226 -0.2683  0.0201
 1221SOL    MW4 4889   0.001   3.222   2.275 -0.5080  0.3444  0.1226
 1222SOL     OW 4890   0.031   3.459   2.367 -0.0227 -0.1624  0.3543
 1222SOL    HW2 4891   0.024   3.471   2.461 -0.7161  0.7541  0.2039
 1222SOL    HW3 4892  -0.040   3.513   2.331 -0.2592 -1.1103 -0.6462
 1222SOL    MW4 4893   0.020   3.468   2.374 -0.1454 -0.1666  0.2024
 1223SOL     OW 4894   0.236   3.592   2.252 -0.8736 -0.1690  0.2725
 1223SOL    HW2 4895   0.317   3.551   2.284 -0.3219 -0.8138 -1.8659
 1223SOL    HW3 4896   0.167   3.531   2.276 -0.5229 -0.3937  0.7120
 1223SOL    MW4 4897   0.238   3.579   2.259 -0.7545 -0.2837  0.0483
 1224SOL     OW 4898   0.244   3.852   2.355 -0.4206  0.3470 -1.1019
 1224SOL    HW2 4899   0.171   3.898   2.314  0.7872  1.8215 -1.6551
 1224SOL    HW3 4900   0.238   3.762   2.322 -1.8270  0.5138 -1.3229
 1224SOL    MW4 4901   0.233   3.846   2.346 -0.4468  0.5635 -1.2040
 1225SOL     OW 4902   0.009   3.992   2.243 -0.0345  0.5671 -0.0485
 1225SOL    HW2 4903   0.028   4.082   2.270  2.7413  0.1906 -0.5644
 1225SOL    HW3 4904  -0.000   3.997   2.148  0.4561  0.2688 -0.1144
 1225SOL    MW4 4905   0.011   4.005   2.234  0.3964  0.4781 -0.1253
 1226SOL     OW 4906   0.019   4.262   2.323  0.8674  0.4181  0.2860
 1226SOL    HW2 4907   0.017   4.265   2.419  0.3437  0.5072  0.2748
 1226SOL    HW3 4908   0.102   4.302   2.299  1.5071 -0.6047  0.7425
 1226SOL    MW4 4909   0.030   4.267   2.332  0.8827  0.2949  0.3448
 1227SOL     OW 4910   0.250   4.351   2.241 -0.0945 -0.0657  0.4172
 1227SOL    HW2 4911   0.321   4.307   2.289  1.1244  0.6020 -0.7316
 1227SOL    HW3 4912   0.262   4.444   2.261  0.0656  0.1604 -0.7091
 1227SOL    MW4 4913   0.261   4.358   2.250  0.0874  0.0522  0.1170
 1228SOL     OW 4914   0.638   4.650   2.350 -0.0403  0.0877  0.2194
 1228SOL    HW2 4915   0.627   4.645   2.445 -0.9316  0.2911  0.1383
 1228SOL    HW3 4916   0.715   4.704   2.337  1.3367 -1.6748  0.8561
 1228SOL    MW4 4917   0.647   4.656   2.361  0.0238 -0.1180  0.2927
 1229SOL     OW 4918   0.441   0.149   2.277  0.0844 -0.2009  0.3463
 1229SOL    HW2 4919   0.520   0.102   2.305  0.2600  0.0720  0.3004
 1229SOL    HW3 4920   0.445   0.148   2.181  0.1806  0.0693  0.3478
 1229SOL    MW4 4921   0.452   0.142   2.268  0.1202 -0.1293  0.3404
 1230SOL     OW 4922   0.455   0.415   2.377 -0.5329 -0.0092 -0.2093
 1230SOL    HW2 4923   0.436   0.406   2.470  0.1914  0.4472 -0.0184
 1230SOL    HW3 4924   0.439   0.327   2.341 -0.0785 -0.3724  0.4704
 1230SOL    MW4 4925   0.450   0.402   2.384 -0.3774  0.0031 -0.0944
 1231SOL     OW 4926   0.711   0.487   2.281 -0.1693  0.4347  0.0747
 1231SOL    HW2 4927   0.700   0.580   2.303 -0.8442  0.4652 -0.3659
 1231SOL    HW3 4928   0.634   0.445   2.320  0.4003 -0.0196  0.7169
 1231SOL    MW4 4929   0.699   0.494   2.289 -0.1832  0.3788  0.1013
 1232SOL     OW 4930   0.680   0.775   2.314  0.2309 -0.0949  0.3693
 1232SOL    HW2 4931   0.679   0.787   2.409  2.1942  0.5333  0.3290
 1232SOL    HW3 4932   0.597   0.814   2.285 -0.5135 -0.5346  1.8383
 1232SOL    MW4 4933   0.669   0.782   2.323  0.3917 -0.0700  0.5578
 1233SOL     OW 4934   0.432   0.875   2.220 -0.4981 -0.4208  0.3285
 1233SOL    HW2 4935   0.346   0.840   2.242 -0.7110 -0.0198  0.1316
 1233SOL    HW3 4936   0.435   0.875   2.125 -1.3154  2.0391  0.2690
 1233SOL    MW4 4937   0.421   0.871   2.211 -0.6340 -0.0433  0.2947
 1234SOL     OW 4938   0.452   1.121   2.347 -0.1024  0.0871 -0.1346
 1234SOL    HW2 4939   0.468   1.033   2.313  1.1140  0.9012 -1.7247
 1234SOL    HW3 4940   0.374   1.151   2.300  0.3222  0.3905 -0.6564
 1234SOL    MW4 4941   0.444   1.113   2.336  0.1141  0.2346 -0.4133
 1235SOL     OW 4942   0.679   1.274   2.213 -0.3002 -0.3993 -0.3215
 1235SOL    HW2 4943   0.666   1.360   2.253 -0.8516 -0.0827 -1.1535
 1235SOL    HW3 4944   0.611   1.219   2.251 -1.8365  0.3044 -1.9314
 1235SOL    MW4 4945   0.668   1.279   2.223 -0.5757 -0.2647 -0.6437
 1236SOL     OW 4946   0.657   1.523   2.329  0.4819  0.4802 -0.2824
 1236SOL    HW2 4947   0.655   1.540   2.423  0.8237  1.6652 -0.4735
 1236SOL    HW3 4948   0.738   1.564   2.299  0.3232  0.2054 -1.1107
 1236SOL    MW4 4949   0.667   1.531   2.338  0.5061  0.6003 -0.4169
 1237SOL     OW 4950   0.442   1.659   2.217 -0.1102  0.0763  0.1114
 1237SOL    HW2 4951   0.517   1.607   2.246 -0.6594 -0.7904  0.0073
 1237SOL    HW3 4952   0.366   1.617   2.258 -0.5359  1.0119  0.3068
 1237SOL    MW4 4953   0.442   1.647   2.226 -0.2388  0.0854  0.1234
 1238SOL     OW 4954   0.417   1.924   2.350 -0.4288 -0.0221  0.3544
 1238SOL    HW2 4955   0.493   1.975   2.322  0.2018 -0.6411  0.9200
 1238SOL    HW3 4956   0.423   1.842   2.299 -0.8819  0.0551  0.1778
 1238SOL    MW4 4957   0.428   1.920   2.339 -0.4054 -0.0935  0.4057
 1239SOL     OW 4958   0.649   2.052   2.263 -0.6654 -0.4709 -0.3322
 1239SOL    HW2 4959   0.731   2.011   2.290 -1.4540 -0.8589  1.5281
 1239SOL    HW3 4960   0.660   2.144   2.286  0.1379 -0.0512 -2.2513
 1239SOL    MW4 4961   0.661   2.059   2.269 -0.6634 -0.4667 -0.3400
 1240SOL     OW 4962   0.635   2.323   2.353 -0.1168 -0.6850 -0.3737
 1240SOL    HW2 4963   0.630   2.328   2.449 -0.7941 -0.2161 -0.4289
 1240SOL    HW3 4964   0.715   2.370   2.331 -0.0427 -0.6547 -0.0510
 1240SOL    MW4 4965   0.645   2.330   2.363 -0.1964 -0.6191 -0.3384
 1241SOL     OW 4966   0.410   2.393   2.189 -0.0557  0.4164 -0.5524
 1241SOL    HW2 4967   0.474   2.345   2.242 -0.5295  0.5667  0.1527
 1241SOL    HW3 4968   0.325   2.369   2.225 -0.4665 -0.5206 -2.1055
 1241SOL    MW4 4969   0.408   2.384   2.200 -0.1724  0.3126 -0.6642
 1242SOL     OW 4970   0.454   2.664   2.330  0.0795 -0.0829 -0.6225
 1242SOL    HW2 4971   0.455   2.642   2.423  0.6364  0.7352 -0.4325
 1242SOL    HW3 4972   0.431   2.582   2.286  0.1415 -0.5463  0.2113
 1242SOL    MW4 4973   0.451   2.650   2.336  0.1612 -0.0361 -0.4874
 1243SOL     OW 4974   0.681   2.823   2.267  0.1996 -0.1764  0.1660
 1243SOL    HW2 4975   0.760   2.786   2.305  0.0323  0.5098  1.1932
 1243SOL    HW3 4976   0.612   2.762   2.291  0.4449 -0.9073 -0.9444
 1243SOL    MW4 4977   0.682   2.810   2.275  0.2099 -0.1823  0.1551
 1244SOL     OW 4978   0.674   3.082   2.368  0.1424  0.1217 -0.9733
 1244SOL    HW2 4979   0.597   3.119   2.326 -0.8476  0.4468  1.0546
 1244SOL    HW3 4980   0.673   2.989   2.346 -2.4812 -0.4742  1.3955
 1244SOL    MW4 4981   0.664   3.075   2.360 -0.3343  0.0859 -0.3932
 1245SOL     OW 4982   0.439   3.188   2.264  0.1942  0.1873  0.2446
 1245SOL    HW2 4983   0.360   3.158   2.308 -0.2000  0.1599 -0.4779
 1245SOL    HW3 4984   0.427   3.163   2.172  0.2310  1.8038 -0.2095
 1245SOL    MW4 4985   0.427   3.180   2.257  0.1470  0.3969  0.0894
 1246SOL     OW 4986   0.457   3.453   2.338 -0.0299 -0.1952 -0.1256
 1246SOL    HW2 4987   0.542   3.474   2.298  0.1490 -0.5869  0.0441
 1246SOL    HW3 4988   0.447   3.359   2.323  0.2999 -0.4574  1.2451
 1246SOL    MW4 4989   0.467   3.443   2.330  0.0372 -0.2814  0.0776
 1247SOL     OW 4990   0.703   3.579   2.271 -0.2152  0.6988 -0.5728
 1247SOL    HW2 4991   0.714   3.662   2.317 -1.6322  0.6509 -0.1281
 1247SOL    HW3 4992   0.670   3.603   2.184  0.0812  0.6419 -0.7023
 1247SOL    MW4 4993   0.700   3.593   2.265 -0.3631  0.6850 -0.5312
 1248SOL     OW 4994   0.695   3.871   2.393 -0.0902 -0.0310 -0.3943
 1248SOL    HW2 4995   0.674   3.889   2.484  0.9046  0.3495 -0.2424
 1248SOL    HW3 4996   0.614   3.891   2.345 -0.6102 -0.2380  0.3996
 1248SOL    MW4 4997   0.681   3.876   2.398 -0.0276 -0.0081 -0.2695
 1249SOL     OW 4998   0.466   3.973   2.263  0.4297  0.0477 -0.3415
 1249SOL    HW2 4999   0.384   3.931   2.287 -0.6355  2.6724  0.7852
 1249SOL    HW3 5000   0.465   3.977   2.167  0.0468 -1.4345 -0.4076
 1249SOL    MW4 5001   0.455   3.968   2.253  0.2386  0.1984 -0.2016
 1250SOL     OW 5002   0.482   4.243   2.360 -0.2117 -0.2142 -0.0561
 1250SOL    HW2 5003   0.539   4.285   2.296  1.7101  0.3604  1.9515
 1250SOL    HW3 5004   0.480   4.151   2.334  0.2758  0.0702 -1.1289
 1250SOL    MW4 5005   0.490   4.236   2.348  0.1062 -0.1009  0.0672
 1251SOL     OW 5006   0.663   4.393   2.211 -0.4420 -0.1493 -0.0812
 1251SOL    HW2 5007   0.659   4.486   2.234  1.2409 -0.1993  0.4401
 1251SOL    HW3 5008   0.679   4.393   2.116  0.1276  0.0919  0.0152
 1251SOL    MW4 5009   0.665   4.406   2.201 -0.1448 -0.1240  0.0003
 1252SOL     OW 5010   1.080   4.635   2.337 -0.0048  0.2093 -0.1346
 1252SOL    HW2 5011   1.088   4.631   2.432  0.5803  0.6519 -0.1611
 1252SOL    HW3 5012   0.999   4.684   2.321 -0.1446  0.0633  0.1344
 1252SOL    MW4 5013   1.071   4.641   2.347  0.0539  0.2484 -0.1026
 1253SOL     OW 5014   0.859   0.135   2.252 -0.6994  0.0868 -0.0711
 1253SOL    HW2 5015   0.896   0.216   2.288 -1.1943  0.6941 -0.9123
 1253SOL    HW3 5016   0.856   0.150   2.158  1.3032 -1.7889 -0.4828
 1253SOL    MW4 5017   0.864   0.148   2.244 -0.5005 -0.0805 -0.2364
 1254SOL     OW 5018   0.962   0.373   2.338 -0.5210 -0.1406 -0.3085
 1254SOL    HW2 5019   1.038   0.419   2.301  0.8134  0.3347  2.8643
 1254SOL    HW3 5020   0.891   0.437   2.334  0.3880  0.9527  0.7365
 1254SOL    MW4 5021   0.963   0.387   2.332 -0.2250  0.0663  0.2480
 1255SOL     OW 5022   1.175   0.555   2.234 -0.1430  0.0798 -0.0543
 1255SOL    HW2 5023   1.251   0.506   2.266  0.2424  1.1189  0.6624
 1255SOL    HW3 5024   1.177   0.543   2.139  0.2544 -0.8500  0.0632
 1255SOL    MW4 5025   1.186   0.547   2.226 -0.0398  0.0942  0.0558
 1256SOL     OW 5026   1.155   0.813   2.324  0.5473 -0.2478 -0.2282
 1256SOL    HW2 5027   1.066   0.825   2.292  0.1226 -0.6801  0.7737
 1256SOL    HW3 5028   1.173   0.720   2.312 -0.1380 -0.7032  2.0731
 1256SOL    MW4 5029   1.146   0.803   2.318  0.4009 -0.3649  0.2076
 1257SOL     OW 5030   0.908   0.917   2.221 -0.8523 -0.1299 -0.1749
 1257SOL    HW2 5031   0.903   1.004   2.260  0.2202 -0.6285  1.1233
 1257SOL    HW3 5032   0.826   0.875   2.245 -0.0801 -0.5384  1.8453
 1257SOL    MW4 5033   0.897   0.923   2.229 -0.6089 -0.2496  0.2629
 1258SOL     OW 5034   0.905   1.157   2.357 -0.3485  0.0656 -0.5118
 1258SOL    HW2 5035   0.984   1.211   2.352  0.6639 -1.4092 -0.9998
 1258SOL    HW3 5036   0.843   1.199   2.298  1.2404 -0.5992 -2.7111
 1258SOL    MW4 5037   0.907   1.169   2.349 -0.0053 -0.2167 -0.8663
 1259SOL     OW 5038   1.121   1.321   2.260 -0.1935 -0.0830 -0.0358
 1259SOL    HW2 5039   1.209   1.295   2.285 -0.4302 -0.5551  0.3118
 1259SOL    HW3 5040   1.118   1.309   2.165 -0.0779 -0.6490  0.0333
 1259SOL    MW4 5041   1.132   1.316   2.251 -0.2095 -0.2200  0.0192
 1260SOL     OW 5042   1.123   1.575   2.343 -0.2734 -0.1154  0.5622
 1260SOL    HW2 5043   1.046   1.617   2.305 -0.0659  0.0071  0.2765
 1260SOL    HW3 5044   1.118   1.484   2.313  1.1207  0.5062 -1.6874
 1260SOL    MW4 5045   1.112   1.569   2.334 -0.0621 -0.0173  0.2277
 1261SOL     OW 5046   0.877   1.673   2.224  0.5839 -0.0739 -0.3035
 1261SOL    HW2 5047   0.876   1.767   2.241  0.1548  0.0471 -0.9832
 1261SOL    HW3 5048   0.918   1.664   2.138  2.2218 -0.6391  0.5039
 1261SOL    MW4 5049   0.882   1.684   2.215  0.7434 -0.1325 -0.2866
 1262SOL     OW 5050   0.902   1.939   2.327 -0.1264  0.4843 -0.2477
 1262SOL    HW2 5051   0.912   1.930   2.422  0.3436 -2.1167 -0.5108
 1262SOL    HW3 5052   0.979   1.989   2.300  1.2113 -1.1890  0.4075
 1262SOL    MW4 5053   0.914   1.945   2.336  0.1121 -0.0797 -0.1960
 1263SOL     OW 5054   1.121   2.066   2.229 -0.1183 -0.3876 -0.3548
 1263SOL    HW2 5055   1.199   2.020   2.258 -0.8249 -1.9807 -0.9098
 1263SOL    HW3 5056   1.142   2.095   2.140  0.0669 -0.2459 -0.2657
 1263SOL    MW4 5057   1.134   2.064   2.221 -0.1871 -0.5791 -0.4163
 1264SOL     OW 5058   1.117   2.297   2.375 -0.1046 -0.4342  0.3065
 1264SOL    HW2 5059   1.192   2.346   2.341 -0.3697  0.1232  0.5144
 1264SOL    HW3 5060   1.116   2.216   2.324 -0.4236  0.3355 -0.9337
 1264SOL    MW4 5061   1.127   2.293   2.364 -0.1817 -0.2591  0.1703
 1265SOL     OW 5062   0.892   2.441   2.281 -0.0117  0.1421 -0.2382
 1265SOL    HW2 5063   0.962   2.384   2.315  1.2040  2.3581  1.0991
 1265SOL    HW3 5064   0.907   2.442   2.186  2.9172  1.9623  0.1754
 1265SOL    MW4 5065   0.904   2.433   2.273  0.5351  0.6747 -0.0072
 1266SOL     OW 5066   0.908   2.702   2.371  0.3100  0.1149 -0.3657
 1266SOL    HW2 5067   0.896   2.699   2.466 -3.4601  0.1665 -0.7907
 1266SOL    HW3 5068   0.921   2.610   2.346  0.7060  0.0376  0.0992
 1266SOL    MW4 5069   0.908   2.689   2.381 -0.1352  0.1115 -0.3605
 1267SOL     OW 5070   1.126   2.853   2.279  0.0233 -0.1104  0.1455
 1267SOL    HW2 5071   1.199   2.791   2.280 -0.7565 -1.0283  0.5159
 1267SOL    HW3 5072   1.052   2.804   2.313 -0.3705  1.3396  1.4603
 1267SOL    MW4 5073   1.126   2.838   2.284 -0.1316 -0.0402  0.3679
 1268SOL     OW 5074   1.135   3.105   2.389  0.0661 -0.5373 -0.6160
 1268SOL    HW2 5075   1.045   3.126   2.367 -0.7572 -2.0572  1.1063
 1268SOL    HW3 5076   1.149   3.017   2.353  0.7034 -0.4799 -0.5190
 1268SOL    MW4 5077   1.125   3.096   2.381  0.0415 -0.7303 -0.3759
 1269SOL     OW 5078   0.903   3.176   2.265 -0.1405 -0.0991 -0.4847
 1269SOL    HW2 5079   0.919   3.268   2.286  1.3201 -0.5832  0.6828
 1269SOL    HW3 5080   0.818   3.156   2.303 -0.1685  0.6099 -0.1772
 1269SOL    MW4 5081   0.894   3.185   2.272  0.0485 -0.0694 -0.2901
 1270SOL     OW 5082   0.930   3.436   2.320 -0.1695  0.4520  0.0359
 1270SOL    HW2 5083   0.940   3.421   2.414  0.5151 -1.0418 -0.2566
 1270SOL    HW3 5084   0.847   3.484   2.312  0.1630  1.2926  1.4550
 1270SOL    MW4 5085   0.920   3.440   2.331 -0.0353  0.3658  0.1845
 1271SOL     OW 5086   1.114   3.609   2.207 -0.3984  0.2003 -0.2274
 1271SOL    HW2 5087   1.198   3.579   2.242  0.2880  0.7199 -1.4128
 1271SOL    HW3 5088   1.050   3.548   2.244  0.4145  0.1683  1.1742
 1271SOL    MW4 5089   1.117   3.597   2.216 -0.2006  0.2647 -0.1989
 1272SOL     OW 5090   1.116   3.861   2.320  0.0202  0.2389 -0.5041
 1272SOL    HW2 5091   1.198   3.907   2.300 -1.0454  1.7880 -1.4033
 1272SOL    HW3 5092   1.124   3.778   2.273  1.6844 -0.2516  0.5936
 1272SOL    MW4 5093   1.128   3.856   2.311  0.0992  0.3786 -0.4779
 1273SOL     OW 5094   0.895   4.026   2.238  0.3300  0.2734 -0.0980
 1273SOL    HW2 5095   0.973   3.970   2.236 -0.0014 -0.1800 -0.4118
 1273SOL    HW3 5096   0.834   3.981   2.296  0.7256  1.2090  1.0720
 1273SOL    MW4 5097   0.897   4.013   2.245  0.3385  0.3371  0.0150
 1274SOL     OW 5098   0.855   4.285   2.370  0.0048  0.0256 -0.3788
 1274SOL    HW2 5099   0.852   4.202   2.323  0.6968  0.5979 -1.4391
 1274SOL    HW3 5100   0.783   4.337   2.332 -1.0344 -0.4094  0.9262
 1274SOL    MW4 5101   0.845   4.281   2.359 -0.0410  0.0437 -0.3465
 1275SOL     OW 5102   1.085   4.365   2.263 -0.5759  0.2033  0.0758
 1275SOL    HW2 5103   1.004   4.338   2.305  0.3247 -0.5282  1.3581
 1275SOL    HW3 5104   1.103   4.452   2.298  0.0349 -0.2969  1.0191
 1275SOL    MW4 5105   1.076   4.373   2.273 -0.3765  0.0408  0.3694
 1276SOL     OW 5106   1.534   4.663   2.360  0.4481 -0.2540 -0.5200
 1276SOL    HW2 5107   1.623   4.693   2.341  0.3923 -0.2168 -0.7346
 1276SOL    HW3 5108   1.478   4.726   2.314  0.2883  0.1872  0.2797
 1276SOL    MW4 5109   1.539   4.676   2.351  0.4197 -0.1909 -0.4428
 1277SOL     OW 5110   1.294   0.119   2.227 -0.5040  0.2955  0.1266
 1277SOL    HW2 5111   1.281   0.205   2.266 -1.2237  0.2865 -0.0947
 1277SOL    HW3 5112   1.226   0.064   2.265  0.5122 -0.4067  0.9493
 1277SOL    MW4 5113   1.283   0.123   2.237 -0.4649  0.2016  0.2060
 1278SOL     OW 5114   1.331   0.376   2.375 -0.1412  0.2535  0.3083
 1278SOL    HW2 5115   1.324   0.382   2.470 -0.2631  0.5978  0.2759
 1278SOL    HW3 5116   1.417   0.413   2.354  0.4713 -1.0914  0.4119
 1278SOL    MW4 5117   1.342   0.381   2.385 -0.0765  0.1215  0.3177
 1279SOL     OW 5118   1.568   0.506   2.281 -0.0654  0.3387  0.2090
 1279SOL    HW2 5119   1.655   0.470   2.298 -0.3122  0.1221  1.0406
 1279SOL    HW3 5120   1.567   0.523   2.187  0.9160  0.4507  0.2162
 1279SOL    MW4 5121   1.580   0.503   2.271  0.0315  0.3249  0.3197
 1280SOL     OW 5122   1.549   0.756   2.405  0.2903  0.4284  0.4713
 1280SOL    HW2 5123   1.630   0.801   2.382  1.1191 -0.4786  1.5749
 1280SOL    HW3 5124   1.558   0.669   2.365  0.4687 -0.1430  1.7187
 1280SOL    MW4 5125   1.561   0.750   2.397  0.4232  0.2333  0.7815
 1281SOL     OW 5126   1.392   0.939   2.256 -0.0676  0.1634 -0.2100
 1281SOL    HW2 5127   1.446   0.880   2.308 -0.5293  0.3242  0.4611
 1281SOL    HW3 5128   1.302   0.914   2.277 -0.2567  0.4494 -0.6745
 1281SOL    MW4 5129   1.388   0.928   2.266 -0.1535  0.2223 -0.1828
 1282SOL     OW 5130   1.351   1.205   2.339  0.1263  0.5453  0.1730
 1282SOL    HW2 5131   1.345   1.205   2.435  0.0398  1.6150  0.1738
 1282SOL    HW3 5132   1.359   1.112   2.316  1.1461  0.3376  1.2778
 1282SOL    MW4 5133   1.351   1.193   2.349  0.2494  0.6590  0.3189
 1283SOL     OW 5134   1.597   1.314   2.241 -0.5896 -0.3565 -0.1225
 1283SOL    HW2 5135   1.506   1.285   2.255 -0.3541 -1.2699 -0.4176
 1283SOL    HW3 5136   1.609   1.308   2.146 -0.1521 -0.4688 -0.0599
 1283SOL    MW4 5137   1.587   1.309   2.230 -0.5008 -0.4918 -0.1532
 1284SOL     OW 5138   1.583   1.544   2.388  0.4893 -0.5869  0.4497
 1284SOL    HW2 5139   1.654   1.602   2.359  0.6901 -0.4837  1.1469
 1284SOL    HW3 5140   1.604   1.459   2.349  0.7092 -0.4300  0.2191
 1284SOL    MW4 5141   1.595   1.541   2.379  0.5448 -0.5526  0.5113
 1285SOL     OW 5142   1.365   1.683   2.243 -0.2011  0.5063 -0.2838
 1285SOL    HW2 5143   1.425   1.627   2.293 -0.0760 -1.7816 -2.8805
 1285SOL    HW3 5144   1.279   1.646   2.259 -0.4655  1.3528  0.2705
 1285SOL    MW4 5145   1.362   1.671   2.252 -0.2195  0.3161 -0.5533
 1286SOL     OW 5146   1.344   1.956   2.319 -0.5953 -0.6710  0.0890
 1286SOL    HW2 5147   1.430   1.998   2.314 -1.1740  0.4153 -1.1892
 1286SOL    HW3 5148   1.362   1.863   2.305  0.5183 -0.6352  1.2081
 1286SOL    MW4 5149   1.358   1.949   2.316 -0.5247 -0.5230  0.0680
 1287SOL     OW 5150   1.569   2.104   2.266 -0.0185 -0.4245  0.3139
 1287SOL    HW2 5151   1.653   2.068   2.294 -0.2867 -1.2636  0.0391
 1287SOL    HW3 5152   1.572   2.101   2.171 -0.2754 -0.2495  0.2992
 1287SOL    MW4 5153   1.580   2.099   2.257 -0.0878 -0.5121  0.2757
 1288SOL     OW 5154   1.545   2.357   2.361 -0.2152  0.2455  0.5052
 1288SOL    HW2 5155   1.558   2.348   2.456  0.8482  1.5955  0.5065
 1288SOL    HW3 5156   1.553   2.268   2.328  2.1582  0.0631  1.3995
 1288SOL    MW4 5157   1.548   2.344   2.369  0.2382  0.3995  0.6233
 1289SOL     OW 5158   1.310   2.418   2.238  0.0210  0.9340 -0.1776
 1289SOL    HW2 5159   1.398   2.411   2.275 -0.0293  0.9908 -0.0442
 1289SOL    HW3 5160   1.323   2.420   2.144  0.1360  0.5820 -0.1679
 1289SOL    MW4 5161   1.323   2.418   2.231  0.0296  0.8950 -0.1587
 1290SOL     OW 5162   1.337   2.676   2.311  0.1685 -0.0348 -0.1768
 1290SOL    HW2 5163   1.413   2.707   2.262  0.7458 -0.1880  0.6250
 1290SOL    HW3 5164   1.327   2.584   2.283  1.3537 -0.5468  1.0380
 1290SOL    MW4 5165   1.345   2.668   2.301  0.4010 -0.1226  0.0893
 1291SOL     OW 5166   1.550   2.832   2.219 -0.0322 -0.5873  0.1313
 1291SOL    HW2 5167   1.559   2.914   2.267 -0.8564 -0.7084  0.5076
 1291SOL    HW3 5168   1.572   2.854   2.129 -0.6985  0.1540  0.1432
 1291SOL    MW4 5169   1.554   2.846   2.214 -0.2289 -0.5054  0.1825
 1292SOL     OW 5170   1.574   3.067   2.344  0.6106 -0.5079  0.0272
 1292SOL    HW2 5171   1.573   3.044   2.437 -0.4355 -1.8715 -0.2906
 1292SOL    HW3 5172   1.508   3.135   2.335 -0.5975 -1.6520  0.0074
 1292SOL    MW4 5173   1.565   3.073   2.355  0.3132 -0.8388 -0.0173
 1293SOL     OW 5174   1.354   3.232   2.286  0.3481 -0.0324  0.0756
 1293SOL    HW2 5175   1.281   3.180   2.318 -0.2721  0.2179 -0.9259
 1293SOL    HW3 5176   1.347   3.229   2.191  1.8685 -0.3248 -0.0435
 1293SOL    MW4 5177   1.344   3.225   2.278  0.4669 -0.0380 -0.0723
 1294SOL     OW 5178   1.330   3.512   2.365 -0.3582 -0.5468 -0.0298
 1294SOL    HW2 5179   1.325   3.511   2.460 -1.0683  0.6953 -0.0427
 1294SOL    HW3 5180   1.326   3.420   2.340  0.9741 -0.9547  1.1794
 1294SOL    MW4 5181   1.329   3.500   2.374 -0.2761 -0.4368  0.1280
 1295SOL     OW 5182   1.579   3.581   2.256  0.0032  0.4482  0.3316
 1295SOL    HW2 5183   1.573   3.676   2.268  0.6175  0.4678  0.4972
 1295SOL    HW3 5184   1.500   3.546   2.295 -0.8307  0.9954 -0.8318
 1295SOL    MW4 5185   1.568   3.589   2.262 -0.0257  0.5230  0.1999
 1296SOL     OW 5186   1.591   3.857   2.354  0.2995 -0.0861  0.0300
 1296SOL    HW2 5187   1.574   3.850   2.448  0.5443  0.2803  0.1027
 1296SOL    HW3 5188   1.669   3.912   2.348  0.0728  0.1922 -0.3999
 1296SOL    MW4 5189   1.599   3.863   2.366  0.3019 -0.0010 -0.0171
 1297SOL     OW 5190   1.357   3.991   2.266  0.0337 -0.1831  0.3315
 1297SOL    HW2 5191   1.443   3.961   2.297 -0.1894 -0.5477  0.5983
 1297SOL    HW3 5192   1.367   3.996   2.170  0.4400  0.0539  0.3834
 1297SOL    MW4 5193   1.370   3.988   2.257  0.0579 -0.1999  0.3735
 1298SOL     OW 5194   1.327   4.266   2.365 -0.4395 -0.3522  0.1449
 1298SOL    HW2 5195   1.332   4.175   2.337  0.3420  0.4769 -2.6046
 1298SOL    HW3 5196   1.244   4.298   2.328  0.9999  0.9932 -2.0796
 1298SOL    MW4 5197   1.317   4.258   2.357 -0.1465 -0.0653 -0.5113
 1299SOL     OW 5198   1.559   4.391   2.265  0.4439 -0.2816 -0.0038
 1299SOL    HW2 5199   1.475   4.352   2.289  0.1822 -0.0384 -0.5083
 1299SOL    HW3 5200   1.550   4.484   2.286  0.8080 -0.3658  0.5207
 1299SOL    MW4 5201   1.547   4.398   2.271  0.4574 -0.2606 -0.0012
 1300SOL     OW 5202   2.010   0.005   2.313  0.2616  0.0992 -0.1409
 1300SOL    HW2 5203   2.088   0.060   2.305  0.5182 -0.2433  0.0129
 1300SOL    HW3 5204   2.039  -0.082   2.288  0.1917 -0.2519  0.9549
 1300SOL    MW4 5205   2.024   0.001   2.309  0.2862  0.0077  0.0240
 1301SOL     OW 5206   1.768   0.102   2.263  0.3849  0.1565 -0.2090
 1301SOL    HW2 5207   1.772   0.197   2.273  0.1828  0.0779  0.6203
 1301SOL    HW3 5208   1.857   0.072   2.282 -0.1722 -0.0675  2.2844
 1301SOL    MW4 5209   1.780   0.111   2.267  0.2847  0.1166  0.2294
 1302SOL     OW 5210   1.803   0.368   2.339 -0.1893 -0.4108  0.0904
 1302SOL    HW2 5211   1.790   0.374   2.433 -2.2374  3.5429 -0.3164
 1302SOL    HW3 5212   1.888   0.409   2.324 -1.1787  1.7364  0.0393
 1302SOL    MW4 5213   1.812   0.375   2.349 -0.5901  0.3941  0.0300
 1303SOL     OW 5214   2.043   0.492   2.264  0.4910 -0.2979  0.1454
 1303SOL    HW2 5215   2.026   0.581   2.295 -0.6522 -0.4412 -0.0595
 1303SOL    HW3 5216   2.041   0.500   2.169 -0.6694 -0.7314  0.1252
 1303SOL    MW4 5217   2.040   0.505   2.256  0.1871 -0.3740  0.1157
 1304SOL     OW 5218   2.013   0.736   2.373  0.1607 -0.2902  0.3933
 1304SOL    HW2 5219   2.079   0.797   2.341  0.3131  0.6354  2.3440
 1304SOL    HW3 5220   1.932   0.786   2.373 -0.2054 -0.8868 -0.3918
 1304SOL    MW4 5221   2.011   0.750   2.369  0.1325 -0.2468  0.5471
 1305SOL     OW 5222   1.783   0.895   2.325 -0.0066 -0.2295 -0.5489
 1305SOL    HW2 5223   1.791   0.982   2.364  2.2023 -0.2392 -0.8966
 1305SOL    HW3 5224   1.785   0.911   2.230  1.6665 -0.7261 -0.6138
 1305SOL    MW4 5225   1.784   0.909   2.317  0.5056 -0.2963 -0.6033
 1306SOL     OW 5226   1.787   1.173   2.394 -0.0650  0.1410  0.1879
 1306SOL    HW2 5227   1.849   1.214   2.334 -0.5382  0.2719 -0.2171
 1306SOL    HW3 5228   1.701   1.202   2.363 -0.3570 -0.5075  0.3915
 1306SOL    MW4 5229   1.784   1.182   2.382 -0.1659  0.0727  0.1613
 1307SOL     OW 5230   1.994   1.292   2.254  0.1867  0.1124 -0.5974
 1307SOL    HW2 5231   1.981   1.384   2.280 -0.0672  0.1132 -0.7260
 1307SOL    HW3 5232   2.036   1.297   2.168  1.8278  0.1136  0.1880
 1307SOL    MW4 5233   1.997   1.305   2.246  0.3697  0.1127 -0.5107
 1308SOL     OW 5234   1.999   1.547   2.356  0.1778  0.3294 -0.3584
 1308SOL    HW2 5235   1.994   1.557   2.451  0.0090 -1.8371 -0.1248
 1308SOL    HW3 5236   1.927   1.600   2.323 -0.8126 -0.2481  0.8283
 1308SOL    MW4 5237   1.989   1.555   2.364  0.0249 -0.0326 -0.1710
 1309SOL     OW 5238   1.787   1.687   2.261 -0.3711 -0.3341  0.0662
 1309SOL    HW2 5239   1.793   1.780   2.281 -0.1214 -0.5195  0.8737
 1309SOL    HW3 5240   1.797   1.682   2.166  0.1544  0.4134  0.0835
 1309SOL    MW4 5241   1.789   1.699   2.251 -0.2688 -0.2599  0.1750
 1310SOL     OW 5242   1.785   1.966   2.352 -0.6165  0.0412 -0.1252
 1310SOL    HW2 5243   1.779   1.964   2.448 -0.4074  0.1583 -0.1096
 1310SOL    HW3 5244   1.869   2.009   2.334  0.7947 -2.7414 -0.3294
 1310SOL    MW4 5245   1.795   1.972   2.362 -0.4027 -0.3105 -0.1501
 1311SOL     OW 5246   2.045   2.069   2.277  0.5122 -0.1106  0.7704
 1311SOL    HW2 5247   2.108   2.009   2.315 -1.1973 -2.0397  0.6076
 1311SOL    HW3 5248   2.053   2.056   2.182  1.4099  1.2426  0.6470
 1311SOL    MW4 5249   2.054   2.060   2.269  0.4051 -0.1866  0.7327
 1312SOL     OW 5250   2.050   2.339   2.337  0.2687  0.1470 -0.2965
 1312SOL    HW2 5251   2.125   2.380   2.295 -1.1932  0.8822 -2.2387
 1312SOL    HW3 5252   2.055   2.247   2.311 -0.1548  0.4305 -1.3966
 1312SOL    MW4 5253   2.060   2.332   2.328  0.0200  0.2814 -0.6979
 1313SOL     OW 5254   1.783   2.403   2.222  0.0223 -0.2414 -0.5293
 1313SOL    HW2 5255   1.861   2.387   2.275  0.3126  2.2598 -0.1257
 1313SOL    HW3 5256   1.711   2.367   2.274  0.7689 -1.3739 -0.2852
 1313SOL    MW4 5257   1.784   2.396   2.236  0.1591 -0.0608 -0.4438
 1314SOL     OW 5258   1.760   2.690   2.341 -0.1417 -0.3808  0.5099
 1314SOL    HW2 5259   1.783   2.606   2.302  0.2095 -0.9233  1.8682
 1314SOL    HW3 5260   1.681   2.717   2.295 -0.3133 -1.5054  0.1310
 1314SOL    MW4 5261   1.753   2.683   2.330 -0.1180 -0.6007  0.6391
 1315SOL     OW 5262   1.989   2.811   2.270 -0.1014  0.0604 -0.0956
 1315SOL    HW2 5263   2.063   2.756   2.296 -0.8447 -0.9055 -0.0033
 1315SOL    HW3 5264   1.913   2.769   2.310 -0.9523 -0.0726 -1.8288
 1315SOL    MW4 5265   1.989   2.798   2.279 -0.3117 -0.0846 -0.3121
 1316SOL     OW 5266   2.019   3.063   2.363  0.1273  0.0976  0.2330
 1316SOL    HW2 5267   2.103   3.095   2.329  0.6237 -0.8360  0.5431
 1316SOL    HW3 5268   2.010   2.976   2.323 -1.6122  0.9684 -1.3011
 1316SOL    MW4 5269   2.029   3.056   2.353 -0.0367  0.0893  0.0715
 1317SOL     OW 5270   1.796   3.195   2.256  0.3230  0.6605  0.2379
 1317SOL    HW2 5271   1.870   3.144   2.290  0.2057  0.4932  0.2402
 1317SOL    HW3 5272   1.719   3.143   2.277  0.3389 -0.0968 -1.4629
 1317SOL    MW4 5273   1.796   3.182   2.263  0.3097  0.5385  0.0138
 1318SOL     OW 5274   1.795   3.459   2.356 -0.1996  0.4490  0.4862
 1318SOL    HW2 5275   1.787   3.368   2.327  0.1832  0.7366 -0.5605
 1318SOL    HW3 5276   1.720   3.503   2.316  1.3446  1.2352 -1.6869
 1318SOL    MW4 5277   1.784   3.453   2.347  0.0547  0.5907  0.0614
 1319SOL     OW 5278   2.010   3.614   2.263 -0.4990 -0.2427 -0.1168
 1319SOL    HW2 5279   1.933   3.567   2.296 -0.6681  0.3976  0.4058
 1319SOL    HW3 5280   1.992   3.626   2.170 -1.2727  0.3518  0.0990
 1319SOL    MW4 5281   1.997   3.609   2.255 -0.6234 -0.0798 -0.0194
 1320SOL     OW 5282   2.054   3.872   2.367  0.0561 -0.1731 -0.2831
 1320SOL    HW2 5283   2.043   3.856   2.461  0.3209 -0.8931 -0.3766
 1320SOL    HW3 5284   2.045   3.786   2.326  2.2092 -0.2367 -0.7067
 1320SOL    MW4 5285   2.052   3.859   2.374  0.3751 -0.2765 -0.3513
 1321SOL     OW 5286   1.822   4.037   2.292 -0.5224 -0.7015  0.5448
 1321SOL    HW2 5287   1.894   3.987   2.330  0.7572  0.8613  0.2042
 1321SOL    HW3 5288   1.833   4.026   2.197 -1.3137 -1.2492  0.5071
 1321SOL    MW4 5289   1.833   4.029   2.284 -0.4579 -0.5676  0.4949
 1322SOL     OW 5290   1.802   4.301   2.362 -0.2960  0.2410  0.2507
 1322SOL    HW2 5291   1.818   4.207   2.348 -0.5970  0.5925 -2.7771
 1322SOL    HW3 5292   1.714   4.315   2.327 -0.1916  1.6800  0.5596
 1322SOL    MW4 5293   1.792   4.290   2.355 -0.3219  0.4772 -0.1080
 1323SOL     OW 5294   2.043   4.415   2.263 -0.0459 -0.4791 -0.2880
 1323SOL    HW2 5295   1.969   4.371   2.306 -0.7634  1.0484  0.0531
 1323SOL    HW3 5296   2.027   4.401   2.169 -1.1088  0.3803 -0.2388
 1323SOL    MW4 5297   2.031   4.407   2.256 -0.2808 -0.1642 -0.2365
 1324SOL     OW 5298   2.511   4.654   2.391  0.0655  0.3326 -0.0042
 1324SOL    HW2 5299   2.561   4.717   2.339 -0.4964  1.1916  0.4823
 1324SOL    HW3 5300   2.523   4.571   2.346  0.8706  0.7724 -0.6220
 1324SOL    MW4 5301   2.519   4.651   2.378  0.0976  0.5040 -0.0215
 1325SOL     OW 5302   2.271   0.100   2.299 -0.3366 -0.4063 -0.2627
 1325SOL    HW2 5303   2.281   0.188   2.335  1.3898 -0.4557 -0.5875
 1325SOL    HW3 5304   2.347   0.052   2.331 -1.6705 -2.0176  0.5425
 1325SOL    MW4 5305   2.282   0.105   2.308 -0.2848 -0.6254 -0.1993
 1326SOL     OW 5306   2.247   0.371   2.407 -0.0959  0.2401 -0.0492
 1326SOL    HW2 5307   2.323   0.412   2.366  0.2831 -1.0897 -0.7026
 1326SOL    HW3 5308   2.172   0.423   2.376  0.4166  0.7629 -0.4231
 1326SOL    MW4 5309   2.247   0.384   2.397  0.0217  0.1336 -0.1847
 1327SOL     OW 5310   2.457   0.499   2.273  0.4005  0.3154 -0.7795
 1327SOL    HW2 5311   2.546   0.485   2.305  0.0629 -2.0975 -0.8327
 1327SOL    HW3 5312   2.464   0.495   2.178  0.4612  1.5897 -0.8323
 1327SOL    MW4 5313   2.469   0.497   2.265  0.3640  0.1652 -0.7935
 1328SOL     OW 5314   2.453   0.761   2.386  0.1997 -0.0129 -0.1762
 1328SOL    HW2 5315   2.533   0.797   2.347 -1.6353  0.9879 -3.1592
 1328SOL    HW3 5316   2.441   0.677   2.343 -0.6137  0.0738 -0.1318
 1328SOL    MW4 5317   2.462   0.755   2.375 -0.1497  0.1306 -0.5640
 1329SOL     OW 5318   2.226   0.887   2.296 -0.0813  0.4973 -0.4031
 1329SOL    HW2 5319   2.221   0.977   2.330  1.2014  0.6001 -0.4870
 1329SOL    HW3 5320   2.313   0.857   2.320 -1.0964 -1.3223  1.0828
 1329SOL    MW4 5321   2.237   0.895   2.304 -0.0460  0.2708 -0.2181
 1330SOL     OW 5322   2.203   1.156   2.380 -0.2935 -0.0781 -0.1879
 1330SOL    HW2 5323   2.282   1.207   2.359  0.2498 -0.1128  1.6707
 1330SOL    HW3 5324   2.132   1.204   2.338  0.5669  0.6306 -0.8642
 1330SOL    MW4 5325   2.204   1.169   2.372 -0.1083  0.0108 -0.0319
 1331SOL     OW 5326   2.450   1.288   2.315 -0.0080  0.2486 -0.4300
 1331SOL    HW2 5327   2.535   1.247   2.328 -0.0873 -0.2989 -1.5933
 1331SOL    HW3 5328   2.460   1.376   2.351  0.7356 -0.1470  0.3503
 1331SOL    MW4 5329   2.462   1.294   2.322  0.0796  0.1241 -0.4806
 1332SOL     OW 5330   2.459   1.555   2.372 -0.1966 -0.6631  0.3358
 1332SOL    HW2 5331   2.464   1.564   2.467  0.1464  0.0992  0.2566
 1332SOL    HW3 5332   2.545   1.584   2.341 -0.1581 -1.3191 -0.1794
 1332SOL    MW4 5333   2.471   1.560   2.380 -0.1463 -0.6491  0.2574
 1333SOL     OW 5334   2.235   1.635   2.248  0.0096  0.5920 -0.2083
 1333SOL    HW2 5335   2.309   1.603   2.301 -0.4576  0.8512  0.6027
 1333SOL    HW3 5336   2.159   1.588   2.282  0.0271 -0.9082 -2.1379
 1333SOL    MW4 5337   2.235   1.625   2.259 -0.0498  0.4283 -0.3559
 1334SOL     OW 5338   2.245   1.905   2.377 -0.6990 -0.0069  0.0286
 1334SOL    HW2 5339   2.329   1.937   2.344 -0.3772 -1.2196 -0.3547
 1334SOL    HW3 5340   2.240   1.815   2.347 -2.0456 -0.0170  0.2470
 1334SOL    MW4 5341   2.255   1.898   2.369 -0.8342 -0.1682  0.0069
 1335SOL     OW 5342   2.473   2.041   2.272 -0.1161  0.2419  0.0714
 1335SOL    HW2 5343   2.564   2.011   2.279 -0.1473  0.1051 -0.0801
 1335SOL    HW3 5344   2.460   2.055   2.178 -0.0696  0.8403  0.1537
 1335SOL    MW4 5345   2.484   2.039   2.260 -0.1141  0.3028  0.0623
 1336SOL     OW 5346   2.443   2.299   2.361 -0.3131  0.1649 -0.1675
 1336SOL    HW2 5347   2.522   2.341   2.328  0.1425 -0.4967  0.0593
 1336SOL    HW3 5348   2.451   2.208   2.333 -0.7434 -0.0196  0.2977
 1336SOL    MW4 5349   2.455   2.293   2.353 -0.3097  0.0533 -0.0762
 1337SOL     OW 5350   2.274   2.434   2.196 -0.5549  0.2989 -0.1795
 1337SOL    HW2 5351   2.282   2.516   2.245  2.3493 -0.2023  0.3042
 1337SOL    HW3 5352   2.338   2.376   2.237 -0.9430 -1.4658 -2.0012
 1337SOL    MW4 5353   2.284   2.437   2.208 -0.2230 -0.0001 -0.3560
 1338SOL     OW 5354   2.233   2.687   2.366  0.4676  0.4044 -0.0682
 1338SOL    HW2 5355   2.242   2.718   2.456 -0.1204  0.9711 -0.2003
 1338SOL    HW3 5356   2.314   2.714   2.323  1.3046 -0.9844  0.6073
 1338SOL    MW4 5357   2.245   2.694   2.372  0.5004  0.2960  0.0035
 1339SOL     OW 5358   2.451   2.771   2.213  0.1219 -0.1196  0.1027
 1339SOL    HW2 5359   2.541   2.746   2.236 -0.0666 -0.0237  0.9269
 1339SOL    HW3 5360   2.459   2.805   2.124  0.5980 -1.9311 -0.5842
 1339SOL    MW4 5361   2.464   2.772   2.204  0.1598 -0.3460  0.1208
 1340SOL     OW 5362   2.474   3.016   2.326 -0.2239 -0.5717  0.0833
 1340SOL    HW2 5363   2.547   3.061   2.284 -1.4940  0.6753 -0.8357
 1340SOL    HW3 5364   2.468   2.933   2.280 -1.2911  0.5816 -1.9376
 1340SOL    MW4 5365   2.482   3.011   2.314 -0.5323 -0.2550 -0.3046
 1341SOL     OW 5366   2.255   3.167   2.245  0.3030  0.0781  0.4839
 1341SOL    HW2 5367   2.247   3.239   2.307 -0.0738  0.2728  0.2136
 1341SOL    HW3 5368   2.312   3.103   2.288 -1.5941 -0.7130  1.9141
 1341SOL    MW4 5369   2.262   3.168   2.259  0.0030 -0.0006  0.6370
 1342SOL     OW 5370   2.236   3.434   2.368 -0.0324  0.2822  0.5087
 1342SOL    HW2 5371   2.225   3.456   2.461 -2.0076 -2.7655  1.0429
 1342SOL    HW3 5372   2.157   3.468   2.326 -0.4691 -0.8548  0.4129
 1342SOL    MW4 5373   2.224   3.442   2.375 -0.3506 -0.2699  0.5665
 1343SOL     OW 5374   2.440   3.562   2.230 -0.2415 -0.8516 -0.1569
 1343SOL    HW2 5375   2.442   3.650   2.268 -0.6522 -1.5717  1.5815
 1343SOL    HW3 5376   2.373   3.516   2.280 -1.5375 -1.5370 -2.4748
 1343SOL    MW4 5377   2.432   3.568   2.241 -0.4667 -1.0371 -0.2334
 1344SOL     OW 5378   2.460   3.819   2.318  0.1111 -0.2556 -0.4040
 1344SOL    HW2 5379   2.462   3.840   2.411  1.5874  1.2774 -0.7470
 1344SOL    HW3 5380   2.394   3.878   2.281 -0.9645 -1.3365 -0.2383
 1344SOL    MW4 5381   2.451   3.830   2.325  0.1640 -0.1960 -0.4274
 1345SOL     OW 5382   2.253   4.024   2.234  0.5164 -0.2898  0.1119
 1345SOL    HW2 5383   2.259   4.106   2.283  1.2103 -0.1760 -0.1552
 1345SOL    HW3 5384   2.191   3.970   2.284  0.2802  0.2883  0.4389
 1345SOL    MW4 5385   2.246   4.027   2.247  0.5768 -0.1985  0.1198
 1346SOL     OW 5386   2.243   4.264   2.377  0.1359 -0.6469 -0.0485
 1346SOL    HW2 5387   2.255   4.279   2.471  0.5382  2.5083 -0.5479
 1346SOL    HW3 5388   2.162   4.309   2.355  1.6052  1.2716 -1.7448
 1346SOL    MW4 5389   2.234   4.272   2.386  0.3828  0.0226 -0.3382
 1347SOL     OW 5390   2.472   4.411   2.251  0.5175  0.3083  0.1240
 1347SOL    HW2 5391   2.537   4.347   2.280 -0.0330  0.4348  1.7265
 1347SOL    HW3 5392   2.390   4.380   2.290  0.1418  1.6581  0.4170
 1347SOL    MW4 5393   2.470   4.398   2.260  0.3953  0.5031  0.3741
 1348SOL     OW 5394   2.890   0.009   2.370  0.3577  0.1063 -0.2709
 1348SOL    HW2 5395   2.963   0.068   2.350  1.0973  0.0231  2.0385
 1348SOL    HW3 5396   2.912  -0.072   2.323  1.2720  0.4028 -0.3791
 1348SOL    MW4 5397   2.903   0.006   2.361  0.5759  0.1345  0.0195
 1349SOL     OW 5398   2.696   0.146   2.237 -0.2375 -0.0823  0.0774
 1349SOL    HW2 5399   2.681   0.231   2.279 -0.6911  0.3041 -0.8563
 1349SOL    HW3 5400   2.767   0.106   2.287 -0.2063  0.7362  0.6836
 1349SOL    MW4 5401   2.704   0.152   2.249 -0.2932  0.0767  0.0342
 1350SOL     OW 5402   2.696   0.395   2.400  0.0791 -0.4050  0.2285
 1350SOL    HW2 5403   2.712   0.391   2.494 -0.8112  0.2278  0.4059
 1350SOL    HW3 5404   2.782   0.413   2.362  0.1383  1.0935  1.0507
 1350SOL    MW4 5405   2.710   0.397   2.407 -0.0305 -0.1238  0.3604
 1351SOL     OW 5406   2.924   0.478   2.283 -0.5129  0.2856  0.1365
 1351SOL    HW2 5407   2.918   0.568   2.315  0.2158  0.2267  0.4430
 1351SOL    HW3 5408   2.934   0.488   2.188  0.6536  0.5598  0.2871
 1351SOL    MW4 5409   2.924   0.491   2.274 -0.2629  0.3140  0.1968
 1352SOL     OW 5410   2.905   0.730   2.410 -0.0621 -0.2475 -0.0193
 1352SOL    HW2 5411   2.895   0.738   2.505  0.8482  2.1627 -0.0880
 1352SOL    HW3 5412   2.825   0.767   2.374  1.5105  3.1591 -0.2278
 1352SOL    MW4 5413   2.893   0.736   2.418  0.2655  0.5199 -0.0559
 1353SOL     OW 5414   2.692   0.862   2.287 -0.2235  0.0230  0.0993
 1353SOL    HW2 5415   2.688   0.953   2.315  0.4847  0.6958 -1.8720
 1353SOL    HW3 5416   2.699   0.867   2.191 -1.1714 -2.1183 -0.1067
 1353SOL    MW4 5417   2.692   0.875   2.278 -0.2551 -0.1707 -0.1880
 1354SOL     OW 5418   2.685   1.133   2.343 -0.0486 -0.3617  0.0375
 1354SOL    HW2 5419   2.706   1.144   2.436 -1.2980  0.7015  0.2096
 1354SOL    HW3 5420   2.759   1.172   2.297 -0.5644  1.3473  0.6168
 1354SOL    MW4 5421   2.697   1.140   2.349 -0.2815  0.0040  0.1366
 1355SOL     OW 5422   2.901   1.293   2.238 -0.8872  0.1199  0.0633
 1355SOL    HW2 5423   2.967   1.229   2.266 -0.8332  0.1306 -0.0387
 1355SOL    HW3 5424   2.900   1.286   2.143  0.5517  1.6869 -0.0874
 1355SOL    MW4 5425   2.910   1.283   2.229 -0.6902  0.3281  0.0300
 1356SOL     OW 5426   2.947   1.546   2.325  0.3463  0.7827 -0.0766
 1356SOL    HW2 5427   2.926   1.539   2.419  0.1472  1.7282 -0.0481
 1356SOL    HW3 5428   2.953   1.455   2.296 -1.8255  0.4711  0.3534
 1356SOL    MW4 5429   2.945   1.533   2.334  0.0335  0.8663 -0.0161
 1357SOL     OW 5430   2.696   1.643   2.267 -0.2076 -0.2277 -0.2699
 1357SOL    HW2 5431   2.782   1.601   2.274 -0.0834  0.1251  0.3642
 1357SOL    HW3 5432   2.687   1.663   2.174  0.2891 -0.4934 -0.3798
 1357SOL    MW4 5433   2.706   1.640   2.256 -0.1257 -0.2162 -0.2008
 1358SOL     OW 5434   2.720   1.928   2.314  0.3092  0.0402  0.0359
 1358SOL    HW2 5435   2.719   1.944   2.408  0.1708 -2.1963  0.4198
 1358SOL    HW3 5436   2.711   1.834   2.305 -2.0472  0.4496 -2.3052
 1358SOL    MW4 5437   2.719   1.918   2.325 -0.0199 -0.2008 -0.2223
 1359SOL     OW 5438   2.936   2.088   2.265  0.0910 -0.0200 -0.1734
 1359SOL    HW2 5439   3.013   2.042   2.299  0.1947 -0.0905 -0.5075
 1359SOL    HW3 5440   2.864   2.027   2.280  0.1210 -0.0129  0.0068
 1359SOL    MW4 5441   2.937   2.074   2.272  0.1086 -0.0284 -0.1937
 1360SOL     OW 5442   2.943   2.355   2.357  0.2211  0.3804 -0.2280
 1360SOL    HW2 5443   2.937   2.354   2.452 -0.2963  1.2504 -0.2428
 1360SOL    HW3 5444   2.941   2.263   2.331  1.9752  0.0681  0.6978
 1360SOL    MW4 5445   2.942   2.343   2.366  0.3843  0.4540 -0.1078
 1361SOL     OW 5446   2.656   2.426   2.251  0.1719 -0.4241  0.6332
 1361SOL    HW2 5447   2.735   2.393   2.295  0.7279  1.4310  1.0584
 1361SOL    HW3 5448   2.682   2.436   2.160  0.5642  0.6322  0.8629
 1361SOL    MW4 5449   2.670   2.423   2.245  0.2970 -0.0400  0.7196
 1362SOL     OW 5450   2.696   2.712   2.330 -0.6402 -0.1338 -0.1160
 1362SOL    HW2 5451   2.783   2.740   2.301 -1.0621  0.2709 -1.0078
 1362SOL    HW3 5452   2.693   2.619   2.309 -1.9549  0.7010 -4.0016
 1362SOL    MW4 5453   2.707   2.703   2.323 -0.8693  0.0297 -0.7463
 1363SOL     OW 5454   2.938   2.844   2.255  0.1119 -0.0899  0.3077
 1363SOL    HW2 5455   2.929   2.930   2.296  0.9702  0.3276 -0.3788
 1363SOL    HW3 5456   2.912   2.857   2.164 -0.8999 -0.8196  0.4807
 1363SOL    MW4 5457   2.933   2.857   2.248  0.0917 -0.1311  0.2400
 1364SOL     OW 5458   2.902   3.087   2.385  0.0447  0.3111 -0.2122
 1364SOL    HW2 5459   2.975   3.142   2.357 -0.4804  0.8995 -0.4220
 1364SOL    HW3 5460   2.825   3.126   2.345 -0.1972 -1.2413 -1.3314
 1364SOL    MW4 5461   2.902   3.099   2.376 -0.0565  0.1839 -0.3876
 1365SOL     OW 5462   2.668   3.197   2.244 -0.0219  0.0869  0.4591
 1365SOL    HW2 5463   2.646   3.276   2.295  0.7685  0.5652  0.0606
 1365SOL    HW3 5464   2.704   3.231   2.162 -2.1840 -0.6598 -0.8505
 1365SOL    MW4 5465   2.670   3.212   2.240 -0.2029  0.0515  0.2338
 1366SOL     OW 5466   2.673   3.458   2.370  0.1088  0.0577  0.0308
 1366SOL    HW2 5467   2.745   3.499   2.321  0.3051 -1.2535 -0.8035
 1366SOL    HW3 5468   2.594   3.486   2.323  0.2251 -0.3212 -0.3943
 1366SOL    MW4 5469   2.672   3.467   2.357  0.1501 -0.1653 -0.1354
 1367SOL     OW 5470   2.876   3.635   2.220  0.0167  0.0747  0.0449
 1367SOL    HW2 5471   2.932   3.581   2.276  0.8743  0.1679 -0.7026
 1367SOL    HW3 5472   2.868   3.718   2.268 -1.6777 -0.8408  1.4103
 1367SOL    MW4 5473   2.883   3.639   2.234 -0.0937 -0.0338  0.1264
 1368SOL     OW 5474   2.902   3.914   2.347 -0.4843  0.4698  0.6270
 1368SOL    HW2 5475   2.890   3.912   2.442 -0.3386  0.8931  0.6535
 1368SOL    HW3 5476   2.818   3.944   2.313 -1.0905 -1.3075  0.5183
 1368SOL    MW4 5477   2.889   3.917   2.355 -0.5450  0.2912  0.6161
 1369SOL     OW 5478   2.666   3.982   2.225 -0.1226 -0.3803  0.0790
 1369SOL    HW2 5479   2.593   3.921   2.235 -0.3948 -0.0671 -0.0032
 1369SOL    HW3 5480   2.684   3.984   2.131  0.8284 -1.4319  0.2227
 1369SOL    MW4 5481   2.659   3.974   2.214 -0.0330 -0.4777  0.0871
 1370SOL     OW 5482   2.658   4.246   2.337  0.0499  0.2527 -0.1067
 1370SOL    HW2 5483   2.664   4.243   2.433  1.3391  0.2228 -0.1822
 1370SOL    HW3 5484   2.665   4.155   2.310  0.4195  0.3289 -0.2683
 1370SOL    MW4 5485   2.659   4.234   2.346  0.2688  0.2588 -0.1380
 1371SOL     OW 5486   2.877   4.425   2.250 -0.0378 -0.1428 -0.3581
 1371SOL    HW2 5487   2.956   4.372   2.265 -0.6712 -0.9877 -0.0128
 1371SOL    HW3 5488   2.806   4.374   2.287 -0.9538 -0.0330 -1.9273
 1371SOL    MW4 5489   2.878   4.411   2.257 -0.2422 -0.2398 -0.5196
 1372SOL     OW 5490   3.387   4.659   2.316 -0.0381  0.0968  0.0508
 1372SOL    HW2 5491   3.381   4.656   2.412 -0.2588  0.9457  0.0631
 1372SOL    HW3 5492   3.467   4.708   2.299  0.9748 -1.5873 -0.2005
 1372SOL    MW4 5493   3.397   4.665   2.327  0.0664 -0.0134  0.0193
 1373SOL     OW 5494   3.146   0.117   2.251 -0.6675  0.3876  0.1063
 1373SOL    HW2 5495   3.166   0.198   2.297 -0.5592 -0.2193  1.1444
 1373SOL    HW3 5496   3.227   0.066   2.256  0.0301  1.1603 -2.5967
 1373SOL    MW4 5497   3.160   0.121   2.258 -0.5612  0.4095 -0.1134
 1374SOL     OW 5498   3.153   0.362   2.381 -0.2807  0.0347 -0.0483
 1374SOL    HW2 5499   3.219   0.425   2.351 -0.0875  0.4996  1.3311
 1374SOL    HW3 5500   3.071   0.396   2.344  0.0221  0.3050 -0.4915
 1374SOL    MW4 5501   3.151   0.375   2.372 -0.2153  0.1317  0.0752
 1375SOL     OW 5502   3.367   0.526   2.290 -0.3591 -0.0627 -0.1535
 1375SOL    HW2 5503   3.433   0.463   2.320  0.4794  1.0421  0.3553
 1375SOL    HW3 5504   3.366   0.515   2.195  1.8743  1.1654 -0.3439
 1375SOL    MW4 5505   3.376   0.516   2.281  0.0462  0.2451 -0.1115
 1376SOL     OW 5506   3.374   0.799   2.335 -0.2461  0.3912  0.0287
 1376SOL    HW2 5507   3.454   0.833   2.293  0.4276 -2.1162 -0.8011
 1376SOL    HW3 5508   3.377   0.705   2.319 -2.0837 -0.0755  2.2280
 1376SOL    MW4 5509   3.385   0.791   2.327 -0.3997 -0.0012  0.2094
 1377SOL     OW 5510   3.115   0.886   2.275 -0.0683  0.4630  0.2851
 1377SOL    HW2 5511   3.200   0.858   2.308  0.4649  1.6994 -0.0197
 1377SOL    HW3 5512   3.053   0.822   2.311  1.1633 -1.4028 -0.7918
 1377SOL    MW4 5513   3.118   0.873   2.284  0.1645  0.3800  0.1028
 1378SOL     OW 5514   3.127   1.159   2.318  0.1775  0.3403 -0.1343
 1378SOL    HW2 5515   3.212   1.197   2.296  0.3635  0.8300  1.3831
 1378SOL    HW3 5516   3.135   1.067   2.292  1.6057  0.0974  1.0892
 1378SOL    MW4 5517   3.140   1.152   2.312  0.3905  0.3729  0.2273
 1379SOL     OW 5518   3.368   1.283   2.266  0.6705  0.3194 -0.0122
 1379SOL    HW2 5519   3.443   1.232   2.296  0.1815  0.7398  2.0209
 1379SOL    HW3 5520   3.379   1.369   2.308 -1.4556  0.0713  1.1171
 1379SOL    MW4 5521   3.380   1.288   2.276  0.3255  0.3421  0.4050
 1380SOL     OW 5522   3.357   1.541   2.373  0.3300  0.1964 -0.2306
 1380SOL    HW2 5523   3.359   1.551   2.468 -0.1101 -0.4987 -0.1498
 1380SOL    HW3 5524   3.290   1.603   2.344  0.1124  0.0442 -0.0478
 1380SOL    MW4 5525   3.349   1.551   2.382  0.2432  0.0846 -0.1958
 1381SOL     OW 5526   3.152   1.709   2.261  0.1505  0.0307  0.1082
 1381SOL    HW2 5527   3.147   1.790   2.311  2.4036 -0.4010  1.1349
 1381SOL    HW3 5528   3.078   1.657   2.292  0.6814  0.3582  1.9975
 1381SOL    MW4 5529   3.142   1.713   2.272  0.5178  0.0169  0.4929
 1382SOL     OW 5530   3.132   1.949   2.378 -0.2538  0.2630 -0.0655
 1382SOL    HW2 5531   3.126   1.953   2.473 -1.3588  0.7167 -0.1474
 1382SOL    HW3 5532   3.215   1.990   2.357  0.1021 -0.0566  0.7239
 1382SOL    MW4 5533   3.142   1.955   2.387 -0.3527  0.2807  0.0278
 1383SOL     OW 5534   3.373   2.051   2.298  0.0562  0.0478 -0.3817
 1383SOL    HW2 5535   3.453   2.004   2.323 -1.0175 -1.9780 -0.6435
 1383SOL    HW3 5536   3.363   2.033   2.205 -1.4292 -0.8342 -0.0604
 1383SOL    MW4 5537   3.382   2.042   2.289 -0.2814 -0.3359 -0.3739
 1384SOL     OW 5538   3.363   2.308   2.384 -0.0731  0.1362 -0.1024
 1384SOL    HW2 5539   3.298   2.353   2.330  0.2151  1.6516  0.7905
 1384SOL    HW3 5540   3.366   2.219   2.349 -1.7381  0.3965 -0.9299
 1384SOL    MW4 5541   3.355   2.302   2.372 -0.2548  0.3705 -0.0938
 1385SOL     OW 5542   3.160   2.459   2.234  0.2366  0.1039  0.3100
 1385SOL    HW2 5543   3.171   2.544   2.276 -0.8788  0.0179  0.8042
 1385SOL    HW3 5544   3.080   2.423   2.273  0.5196 -1.0292 -0.1295
 1385SOL    MW4 5545   3.151   2.465   2.245  0.1268 -0.0569  0.3172
 1386SOL     OW 5546   3.174   2.719   2.329  0.3792  0.2191  0.1726
 1386SOL    HW2 5547   3.168   2.729   2.424  0.5780 -0.7647  0.2877
 1386SOL    HW3 5548   3.092   2.758   2.297  0.9070  1.7607  0.6434
 1386SOL    MW4 5549   3.162   2.726   2.337  0.4751  0.2927  0.2499
 1387SOL     OW 5550   3.386   2.868   2.237 -0.2897  0.1310  0.3600
 1387SOL    HW2 5551   3.378   2.945   2.292 -0.9247 -0.6677  1.3933
 1387SOL    HW3 5552   3.313   2.811   2.263  0.5560 -1.1057  0.0723
 1387SOL    MW4 5553   3.375   2.871   2.247 -0.2619 -0.1376  0.4583
 1388SOL     OW 5554   3.351   3.117   2.378  0.0479  0.0842  0.0869
 1388SOL    HW2 5555   3.423   3.157   2.329 -1.0450 -1.9654 -3.3494
 1388SOL    HW3 5556   3.273   3.167   2.352 -0.3177  0.0494  1.0782
 1388SOL    MW4 5557   3.350   3.129   2.368 -0.1445 -0.1908 -0.2357
 1389SOL     OW 5558   3.117   3.232   2.265  0.3061  0.3529 -0.1960
 1389SOL    HW2 5559   3.109   3.326   2.282 -0.4686  0.2789 -0.1285
 1389SOL    HW3 5560   3.109   3.224   2.170  0.6849  0.3832 -0.2317
 1389SOL    MW4 5561   3.115   3.244   2.255  0.2539  0.3471 -0.1918
 1390SOL     OW 5562   3.063   3.492   2.360  0.0780 -0.3448  0.0142
 1390SOL    HW2 5563   3.074   3.500   2.454 -0.4644 -3.1753  0.3578
 1390SOL    HW3 5564   3.129   3.551   2.323  0.3250  0.7456  2.1503
 1390SOL    MW4 5565   3.073   3.501   2.367  0.0390 -0.5744  0.3414
 1391SOL     OW 5566   3.287   3.618   2.290 -0.3312  0.2156 -0.3102
 1391SOL    HW2 5567   3.361   3.574   2.332 -0.5264 -0.1394 -0.3275
 1391SOL    HW3 5568   3.314   3.632   2.200  0.7023  2.4207  0.3235
 1391SOL    MW4 5569   3.300   3.614   2.284 -0.2206  0.4597 -0.2289
 1392SOL     OW 5570   3.301   3.904   2.373  0.0841  0.5318 -0.5024
 1392SOL    HW2 5571   3.388   3.914   2.336  0.6897 -1.1694  0.3885
 1392SOL    HW3 5572   3.279   3.812   2.359 -0.9477  0.5932  0.5628
 1392SOL    MW4 5573   3.309   3.893   2.367  0.0279  0.3154 -0.2443
 1393SOL     OW 5574   3.103   4.024   2.220 -0.5086  0.6258 -0.0438
 1393SOL    HW2 5575   3.169   3.996   2.283 -0.3053 -0.2405 -0.6305
 1393SOL    HW3 5576   3.020   3.998   2.260 -0.4737  1.2769  0.4691
 1393SOL    MW4 5577   3.101   4.017   2.234 -0.4771  0.5974 -0.0535
 1394SOL     OW 5578   3.092   4.284   2.317 -0.4431 -0.2759  0.1779
 1394SOL    HW2 5579   3.178   4.324   2.309 -0.6741  0.3993  0.9986
 1394SOL    HW3 5580   3.103   4.196   2.281  0.2685  0.2411 -0.8780
 1394SOL    MW4 5581   3.105   4.278   2.311 -0.3797 -0.1186  0.1469
 1395SOL     OW 5582   3.346   4.395   2.255  0.3987  0.1175  0.0710
 1395SOL    HW2 5583   3.367   4.480   2.292  1.2061  0.1130 -0.3757
 1395SOL    HW3 5584   3.336   4.411   2.161 -1.0314  0.0124  0.1846
 1395SOL    MW4 5585   3.347   4.408   2.247  0.3166  0.1030  0.0271
 1396SOL     OW 5586   3.815   4.613   2.328  0.2710 -0.1115  0.4215
 1396SOL    HW2 5587   3.819   4.611   2.424  1.9194 -2.7008  0.3561
 1396SOL    HW3 5588   3.900   4.649   2.302  0.4497 -0.8803 -0.0777
 1396SOL    MW4 5589   3.827   4.618   2.337  0.5121 -0.5546  0.3470
 1397SOL     OW 5590   3.617   0.122   2.259 -0.1675 -0.2070  0.2902
 1397SOL    HW2 5591   3.606   0.183   2.333  1.7878 -0.6179  0.9441
 1397SOL    HW3 5592   3.682   0.059   2.289 -0.7456 -1.5037 -1.1131
 1397SOL    MW4 5593   3.624   0.122   2.273  0.0142 -0.4323  0.1914
 1398SOL     OW 5594   3.547   0.338   2.399  0.0200  0.0865  0.2610
 1398SOL    HW2 5595   3.558   0.336   2.494  0.5489 -1.6776  0.1773
 1398SOL    HW3 5596   3.622   0.388   2.367 -1.1745  2.3358  0.8879
 1398SOL    MW4 5597   3.558   0.344   2.407 -0.0678  0.1505  0.3326
 1399SOL     OW 5598   3.753   0.472   2.290 -0.2518 -0.2395  0.1734
 1399SOL    HW2 5599   3.762   0.567   2.302 -2.0318  0.0843 -0.8576
 1399SOL    HW3 5600   3.768   0.459   2.196  0.2856 -1.0293  0.3667
 1399SOL    MW4 5601   3.757   0.483   2.279 -0.4158 -0.3010  0.0629
 1400SOL     OW 5602   3.787   0.753   2.332  0.0881  0.6510 -0.0270
 1400SOL    HW2 5603   3.793   0.734   2.426 -0.8314  0.6216  0.0362
 1400SOL    HW3 5604   3.870   0.794   2.310  0.0856  1.1829  0.9227
 1400SOL    MW4 5605   3.798   0.756   2.342 -0.0336  0.7173  0.1066
 1401SOL     OW 5606   3.599   0.917   2.239  0.0214 -0.3142 -0.1680
 1401SOL    HW2 5607   3.672   0.865   2.274 -0.1055 -0.1453  0.3505
 1401SOL    HW3 5608   3.591   0.889   2.148  0.2236 -0.9069 -0.0047
 1401SOL    MW4 5609   3.608   0.907   2.231  0.0313 -0.3701 -0.0781
 1402SOL     OW 5610   3.598   1.169   2.357  0.1107 -0.1156 -0.3879
 1402SOL    HW2 5611   3.586   1.160   2.451  0.1551  1.7056 -0.1951
 1402SOL    HW3 5612   3.596   1.079   2.324 -2.7682 -0.6231  0.9925
 1402SOL    MW4 5613   3.596   1.156   2.365 -0.2633  0.0577 -0.1803
 1403SOL     OW 5614   3.820   1.297   2.252 -0.0572  0.2178  0.6161
 1403SOL    HW2 5615   3.806   1.369   2.313 -2.0346 -0.8324  1.4673
 1403SOL    HW3 5616   3.750   1.234   2.273 -0.8162 -0.1604 -2.7536
 1403SOL    MW4 5617   3.809   1.298   2.263 -0.4183  0.0294  0.2838
 1404SOL     OW 5618   3.813   1.538   2.388  0.0203 -0.1741 -0.5661
 1404SOL    HW2 5619   3.799   1.547   2.482  0.4658 -0.1199 -0.5049
 1404SOL    HW3 5620   3.745   1.593   2.348 -0.5283 -0.6510 -0.2873
 1404SOL    MW4 5621   3.802   1.547   2.395  0.0067 -0.2299 -0.5212
 1405SOL     OW 5622   3.593   1.676   2.282  0.3470  0.2363  0.0976
 1405SOL    HW2 5623   3.507   1.638   2.301 -0.1801  2.0948  1.6087
 1405SOL    HW3 5624   3.605   1.663   2.188 -1.3208 -0.5978 -0.0259
 1405SOL    MW4 5625   3.583   1.669   2.272  0.0574  0.3715  0.2807
 1406SOL     OW 5626   3.593   1.926   2.366 -0.3086 -0.1669 -0.1669
 1406SOL    HW2 5627   3.671   1.959   2.321 -0.3033  1.0936  0.7374
 1406SOL    HW3 5628   3.590   1.833   2.344  1.3049 -0.1734 -0.4159
 1406SOL    MW4 5629   3.603   1.918   2.357 -0.0950 -0.0014 -0.0805
 1407SOL     OW 5630   3.797   2.070   2.241  0.2153 -0.0637  0.4573
 1407SOL    HW2 5631   3.872   2.017   2.269 -0.0878 -0.4057  0.6184
 1407SOL    HW3 5632   3.802   2.069   2.145 -0.5349 -1.4586  0.4233
 1407SOL    MW4 5633   3.808   2.063   2.232  0.0764 -0.2929  0.4740
 1408SOL     OW 5634   3.806   2.326   2.350 -0.2923  0.5079 -1.0967
 1408SOL    HW2 5635   3.725   2.371   2.325 -1.6330 -1.2608 -0.0169
 1408SOL    HW3 5636   3.800   2.239   2.309 -0.3531 -0.7293  1.4733
 1408SOL    MW4 5637   3.795   2.320   2.341 -0.4772  0.1113 -0.6152
 1409SOL     OW 5638   3.573   2.455   2.276 -0.3792  0.1249  0.0886
 1409SOL    HW2 5639   3.494   2.408   2.302 -0.1216 -0.1273  0.4192
 1409SOL    HW3 5640   3.581   2.438   2.182 -0.2288 -0.5841  0.2234
 1409SOL    MW4 5641   3.563   2.446   2.267 -0.3254 -0.0019  0.1500
 1410SOL     OW 5642   3.601   2.746   2.361  0.2065  0.4048  0.1981
 1410SOL    HW2 5643   3.598   2.656   2.329 -1.1940  0.1632  0.9669
 1410SOL    HW3 5644   3.528   2.790   2.316  0.4317  0.9641  0.3712
 1410SOL    MW4 5645   3.591   2.740   2.350  0.0514  0.4467  0.3223
 1411SOL     OW 5646   3.823   2.874   2.263  0.6968 -0.3918 -0.1708
 1411SOL    HW2 5647   3.818   2.966   2.289  1.0617 -0.1566 -0.9206
 1411SOL    HW3 5648   3.740   2.837   2.291  0.2087  0.3643 -0.5874
 1411SOL    MW4 5649   3.811   2.881   2.270  0.6805 -0.2610 -0.3247
 1412SOL     OW 5650   3.806   3.147   2.359  0.4470  0.2011 -0.3657
 1412SOL    HW2 5651   3.821   3.138   2.453 -0.0512 -0.4517 -0.3443
 1412SOL    HW3 5652   3.886   3.187   2.326  0.8315 -0.0365  0.2639
 1412SOL    MW4 5653   3.819   3.151   2.367  0.4320  0.0837 -0.2798
 1413SOL     OW 5654   3.563   3.254   2.269 -0.1217 -0.5862  0.2670
 1413SOL    HW2 5655   3.551   3.346   2.293  0.3249 -0.5739  0.4563
 1413SOL    HW3 5656   3.651   3.233   2.300  0.5640 -0.5148 -1.5631
 1413SOL    MW4 5657   3.573   3.264   2.276  0.0277 -0.5752  0.0505
 1414SOL     OW 5658   3.521   3.502   2.381 -0.0803 -0.5665  0.2446
 1414SOL    HW2 5659   3.519   3.503   2.477 -0.8598 -0.3905  0.2304
 1414SOL    HW3 5660   3.605   3.541   2.358  0.5226 -1.4483  0.8705
 1414SOL    MW4 5661   3.532   3.507   2.391 -0.1036 -0.6596  0.3253
 1415SOL     OW 5662   3.768   3.592   2.303 -0.0497 -0.0622 -0.0529
 1415SOL    HW2 5663   3.781   3.682   2.333 -0.0510  0.7076 -2.2494
 1415SOL    HW3 5664   3.765   3.599   2.208 -0.5741 -2.3350 -0.2308
 1415SOL    MW4 5665   3.769   3.605   2.295 -0.1190 -0.2605 -0.3662
 1416SOL     OW 5666   3.807   3.853   2.374  0.3048  0.0756  0.0340
 1416SOL    HW2 5667   3.809   3.880   2.465  0.3097 -0.7215  0.2759
 1416SOL    HW3 5668   3.887   3.889   2.336  1.4362 -1.4584  0.8972
 1416SOL    MW4 5669   3.818   3.861   2.381  0.4547 -0.2319  0.1798
 1417SOL     OW 5670   3.555   3.956   2.280 -0.2648  0.6317 -0.3341
 1417SOL    HW2 5671   3.560   4.047   2.310  0.8997  0.7996 -1.0301
 1417SOL    HW3 5672   3.630   3.913   2.321 -1.0574 -0.1249  0.3392
 1417SOL    MW4 5673   3.566   3.962   2.290 -0.2157  0.5540 -0.3371
 1418SOL     OW 5674   3.559   4.230   2.373  0.3237 -0.4301 -0.0573
 1418SOL    HW2 5675   3.633   4.278   2.338  0.7704 -0.6849  0.5273
 1418SOL    HW3 5676   3.482   4.277   2.339  0.7445 -0.2935 -0.8306
 1418SOL    MW4 5677   3.558   4.243   2.364  0.4382 -0.4457 -0.0822
 1419SOL     OW 5678   3.793   4.340   2.283 -0.4003  0.4963  0.4015
 1419SOL    HW2 5679   3.872   4.293   2.310 -1.2017 -0.3794  1.2501
 1419SOL    HW3 5680   3.818   4.432   2.287  0.3897  0.2542  1.2766
 1419SOL    MW4 5681   3.807   4.346   2.287 -0.4018  0.3488  0.6289
 1420SOL     OW 5682   4.280   4.619   2.384  0.5945 -0.3549  0.2968
 1420SOL    HW2 5683   4.274   4.623   2.480  0.7232  0.5900  0.2761
 1420SOL    HW3 5684   4.366   4.656   2.364  0.8556 -1.1798 -0.1534
 1420SOL    MW4 5685   4.290   4.625   2.394  0.6459 -0.3390  0.2347
 1421SOL     OW 5686   4.055   0.070   2.268  0.6282 -0.1993 -0.5238
 1421SOL    HW2 5687   4.038   0.160   2.297 -1.7166 -0.6223 -0.4981
 1421SOL    HW3 5688   4.137   0.046   2.312  0.9475  1.6959 -0.0251
 1421SOL    MW4 5689   4.063   0.079   2.278  0.3610 -0.0050 -0.4546
 1422SOL     OW 5690   3.983   0.348   2.389  0.6309  0.9202  0.1327
 1422SOL    HW2 5691   4.066   0.387   2.361  0.4524 -0.3556 -2.3508
 1422SOL    HW3 5692   3.916   0.402   2.347  0.3390 -0.6170 -1.4547
 1422SOL    MW4 5693   3.985   0.360   2.380  0.5688  0.5491 -0.4044
 1423SOL     OW 5694   4.217   0.450   2.293 -0.1262  0.6037 -0.1522
 1423SOL    HW2 5695   4.214   0.545   2.295  0.2537  0.6419 -1.1824
 1423SOL    HW3 5696   4.299   0.427   2.336 -1.2890  0.6397  2.1717
 1423SOL    MW4 5697   4.227   0.459   2.299 -0.2295  0.6135  0.0185
 1424SOL     OW 5698   4.242   0.715   2.344  0.1039  0.4091  0.2696
 1424SOL    HW2 5699   4.165   0.760   2.312  1.4102  3.7536  1.6432
 1424SOL    HW3 5700   4.316   0.760   2.304  1.4966  0.3070  2.5820
 1424SOL    MW4 5701   4.242   0.727   2.335  0.4600  0.8369  0.7559
 1425SOL     OW 5702   4.035   0.852   2.231 -0.4013 -0.0630 -0.2487
 1425SOL    HW2 5703   4.041   0.941   2.265  1.5435 -0.0753 -0.4845
 1425SOL    HW3 5704   4.059   0.860   2.138  0.0957 -0.8716 -0.1995
 1425SOL    MW4 5705   4.039   0.865   2.223 -0.0792 -0.1713 -0.2733
 1426SOL     OW 5706   4.021   1.124   2.342  0.3625  0.5464  0.5937
 1426SOL    HW2 5707   4.008   1.128   2.436 -0.1764 -1.2655  0.6035
 1426SOL    HW3 5708   3.952   1.180   2.306 -0.9780 -0.7010  1.1671
 1426SOL    MW4 5709   4.010   1.132   2.349  0.1146  0.1428  0.6707
 1427SOL     OW 5710   4.244   1.260   2.231 -0.6924  0.0353  0.0304
 1427SOL    HW2 5711   4.169   1.218   2.274 -0.6267 -0.2586 -0.1376
 1427SOL    HW3 5712   4.320   1.226   2.279 -0.6787  0.5127  0.3506
 1427SOL    MW4 5713   4.244   1.250   2.243 -0.6819  0.0595  0.0505
 1428SOL     OW 5714   4.264   1.519   2.328  0.3857 -0.5319  0.4662
 1428SOL    HW2 5715   4.255   1.427   2.303 -0.1216 -0.5891  0.8608
 1428SOL    HW3 5716   4.346   1.546   2.288 -0.5461 -0.5454 -1.5200
 1428SOL    MW4 5717   4.274   1.510   2.319  0.1958 -0.5412  0.2562
 1429SOL     OW 5718   4.049   1.667   2.290 -0.3561  0.3839  0.0973
 1429SOL    HW2 5719   4.126   1.612   2.301 -1.1351 -0.9219 -0.7432
 1429SOL    HW3 5720   3.977   1.612   2.322 -0.9815  1.4600  0.5667
 1429SOL    MW4 5721   4.049   1.652   2.296 -0.5414  0.3536  0.0484
 1430SOL     OW 5722   3.991   1.919   2.356  0.3049 -1.1675 -0.1154
 1430SOL    HW2 5723   4.000   1.941   2.449  0.0138 -1.6091  0.0182
 1430SOL    HW3 5724   4.022   1.828   2.350  0.6333 -1.0322 -0.5089
 1430SOL    MW4 5725   3.997   1.910   2.368  0.3098 -1.2079 -0.1497
 1431SOL     OW 5726   4.247   2.009   2.256  0.2628  0.2159 -0.2309
 1431SOL    HW2 5727   4.246   2.099   2.288  1.7813  0.2249 -0.1860
 1431SOL    HW3 5728   4.162   1.973   2.283 -0.2074  1.5175  0.0569
 1431SOL    MW4 5729   4.236   2.016   2.264  0.4011  0.3888 -0.1870
 1432SOL     OW 5730   4.253   2.282   2.340 -0.2563 -0.6373 -0.0084
 1432SOL    HW2 5731   4.171   2.323   2.310  0.0715 -0.5000 -0.7182
 1432SOL    HW3 5732   4.322   2.332   2.297  0.2281 -0.3645  1.0716
 1432SOL    MW4 5733   4.251   2.294   2.331 -0.1492 -0.5832  0.0405
 1433SOL     OW 5734   4.042   2.442   2.271  0.1480  0.2501 -0.1666
 1433SOL    HW2 5735   4.025   2.531   2.303 -1.6349 -0.1996  0.1350
 1433SOL    HW3 5736   3.959   2.396   2.281  0.3105 -0.6907 -2.8894
 1433SOL    MW4 5737   4.029   2.448   2.277 -0.0658  0.0666 -0.4860
 1434SOL     OW 5738   4.030   2.735   2.371  0.0135  0.0866 -0.0553
 1434SOL    HW2 5739   4.029   2.739   2.466  1.0063 -0.9661  0.0024
 1434SOL    HW3 5740   3.947   2.775   2.345  0.2843  1.5217  1.1962
 1434SOL    MW4 5741   4.019   2.741   2.380  0.1802  0.1370  0.1174
 1435SOL     OW 5742   4.259   2.847   2.248 -0.0773 -0.0201 -0.3762
 1435SOL    HW2 5743   4.179   2.807   2.283  0.4617  0.0985  1.0539
 1435SOL    HW3 5744   4.330   2.793   2.285  0.6009  1.3806  0.4259
 1435SOL    MW4 5745   4.258   2.834   2.258  0.0833  0.1803 -0.0817
 1436SOL     OW 5746   4.237   3.098   2.364  0.3045  0.6321 -0.1374
 1436SOL    HW2 5747   4.254   3.014   2.322  0.7545 -0.3438  1.9331
 1436SOL    HW3 5748   4.317   3.148   2.352  0.3505  0.4414 -0.6239
 1436SOL    MW4 5749   4.250   3.094   2.357  0.3700  0.4782  0.0716
 1437SOL     OW 5750   4.031   3.230   2.240  0.5528  0.1846 -0.1377
 1437SOL    HW2 5751   4.030   3.317   2.279  0.8423 -0.2228  0.7967
 1437SOL    HW3 5752   4.103   3.184   2.283  0.5712 -0.4355 -0.8051
 1437SOL    MW4 5753   4.040   3.235   2.251  0.5934  0.0490 -0.1025
 1438SOL     OW 5754   4.007   3.473   2.368 -0.4359  0.1447 -0.3863
 1438SOL    HW2 5755   4.082   3.519   2.330 -0.2057  0.7858  0.8500
 1438SOL    HW3 5756   3.932   3.530   2.349 -0.3144  0.4864  0.1714
 1438SOL    MW4 5757   4.007   3.487   2.360 -0.3895  0.2744 -0.1496
 1439SOL     OW 5758   4.289   3.599   2.283  0.1849 -0.1642 -0.3229
 1439SOL    HW2 5759   4.277   3.694   2.291  0.9614 -0.0771 -0.1937
 1439SOL    HW3 5760   4.281   3.582   2.190 -0.9091 -0.1037 -0.2483
 1439SOL    MW4 5761   4.286   3.609   2.272  0.1430 -0.1447 -0.2960
 1440SOL     OW 5762   4.273   3.874   2.313 -0.2608  0.3081 -0.1236
 1440SOL    HW2 5763   4.250   3.883   2.406  0.8140 -1.8536  0.3957
 1440SOL    HW3 5764   4.347   3.933   2.301 -0.6608  0.8992  0.2983
 1440SOL    MW4 5765   4.280   3.883   2.324 -0.1718  0.1009  0.0006
 1441SOL     OW 5766   4.029   3.992   2.260 -0.0529  0.1845 -0.4945
 1441SOL    HW2 5767   4.116   3.955   2.276 -0.3809 -0.1355  0.5644
 1441SOL    HW3 5768   4.022   3.995   2.164  0.7137 -0.7528 -0.5885
 1441SOL    MW4 5769   4.040   3.988   2.249  0.0050  0.0186 -0.3672
 1442SOL     OW 5770   4.028   4.237   2.380  0.4644 -0.3402  0.2406
 1442SOL    HW2 5771   4.098   4.284   2.334  0.6257 -0.8422 -0.0259
 1442SOL    HW3 5772   4.034   4.147   2.348  0.5541 -0.6815  1.2223
 1442SOL    MW4 5773   4.038   4.231   2.370  0.4975 -0.4514  0.3349
 1443SOL     OW 5774   4.245   4.379   2.254 -0.3122  0.2774  0.1342
 1443SOL    HW2 5775   4.238   4.465   2.295  0.9405  0.9920 -1.0838
 1443SOL    HW3 5776   4.336   4.352   2.270 -0.3683 -0.3007 -0.4845
 1443SOL    MW4 5777   4.256   4.387   2.262 -0.1543  0.2954 -0.1082
 1444SOL     OW 5778   0.228   4.622   2.610  0.5279 -0.3524 -0.1159
 1444SOL    HW2 5779   0.242   4.540   2.656 -1.6140 -1.4305 -1.3044
 1444SOL    HW3 5780   0.155   4.663   2.655  0.3335 -0.0251 -0.7200
 1444SOL    MW4 5781   0.220   4.617   2.622  0.2197 -0.4514 -0.3524
 1445SOL     OW 5782   4.488   0.087   2.736  0.1202  0.1706  0.1481
 1445SOL    HW2 5783   4.486   0.087   2.831  0.6491  0.2574  0.1630
 1445SOL    HW3 5784   4.493   0.179   2.711  0.6535  0.1230  0.0599
 1445SOL    MW4 5785   4.488   0.099   2.745  0.2603  0.1757  0.1385
 1446SOL     OW 5786   4.474   0.358   2.638 -0.1893 -0.4627 -0.4999
 1446SOL    HW2 5787   4.554   0.409   2.653  0.1182 -0.9196 -0.5567
 1446SOL    HW3 5788   4.463   0.358   2.543 -0.0595 -0.6864 -0.5176
 1446SOL    MW4 5789   4.483   0.365   2.627 -0.1316 -0.5525 -0.5097
 1447SOL     OW 5790   0.207   0.500   2.718  0.8015 -0.1341  0.1086
 1447SOL    HW2 5791   0.194   0.495   2.812  0.0297 -0.3505 -0.0072
 1447SOL    HW3 5792   0.285   0.446   2.702  0.7235 -0.3912  0.5754
 1447SOL    MW4 5793   0.216   0.492   2.728  0.6894 -0.1966  0.1549
 1448SOL     OW 5794   0.202   0.782   2.657 -0.4629  0.0595  0.5817
 1448SOL    HW2 5795   0.288   0.818   2.679 -1.5488  3.0145  0.2342
 1448SOL    HW3 5796   0.200   0.696   2.699  2.5809  0.0080  0.7174
 1448SOL    MW4 5797   0.213   0.775   2.666 -0.2046  0.4426  0.5537
 1449SOL     OW 5798   4.454   0.921   2.719  0.3277 -0.0487 -0.1664
 1449SOL    HW2 5799   4.392   0.861   2.679  1.7527 -2.0774  0.5981
 1449SOL    HW3 5800   4.540   0.887   2.694  1.2491 -0.9083  3.9024
 1449SOL    MW4 5801   4.458   0.909   2.710  0.6373 -0.4297  0.4713
 1450SOL     OW 5802   4.459   1.174   2.633  0.1827 -0.0205  0.3361
 1450SOL    HW2 5803   4.534   1.221   2.669 -0.0652 -0.0381  0.8847
 1450SOL    HW3 5804   4.464   1.086   2.671  0.2140 -0.2008 -0.0858
 1450SOL    MW4 5805   4.469   1.169   2.643  0.1541 -0.0466  0.3528
 1451SOL     OW 5806   0.200   1.275   2.740  0.7160  0.3582  0.1654
 1451SOL    HW2 5807   0.278   1.232   2.705 -0.0072  0.4086 -1.5598
 1451SOL    HW3 5808   0.203   1.363   2.702 -0.2284  0.3314  0.0387
 1451SOL    MW4 5809   0.211   1.281   2.731  0.4960  0.3613 -0.0790
 1452SOL     OW 5810   0.219   1.525   2.615 -0.0600 -0.0136 -0.5392
 1452SOL    HW2 5811   0.293   1.576   2.648 -0.4440 -0.4535  1.0727
 1452SOL    HW3 5812   0.143   1.562   2.660 -0.6115 -0.6247 -0.9576
 1452SOL    MW4 5813   0.218   1.537   2.626 -0.1834 -0.1523 -0.3818
 1453SOL     OW 5814   4.468   1.667   2.729 -0.0467  0.2301  0.0501
 1453SOL    HW2 5815   4.458   1.647   2.822  0.1621 -0.6221 -0.1107
 1453SOL    HW3 5816   4.477   1.762   2.727  0.4854  0.2167  0.9571
 1453SOL    MW4 5817   4.468   1.677   2.741  0.0511  0.1159  0.1486
 1454SOL     OW 5818   4.459   1.947   2.698  0.2190  0.0400  0.5905
 1454SOL    HW2 5819   4.544   1.991   2.702  0.2486 -0.0153  0.5775
 1454SOL    HW3 5820   4.438   1.944   2.605  0.6399 -0.7729  0.5132
 1454SOL    MW4 5821   4.468   1.952   2.686  0.2784 -0.0745  0.5786
 1455SOL     OW 5822   0.225   2.070   2.714 -0.5535  0.2919 -0.1188
 1455SOL    HW2 5823   0.313   2.039   2.692 -0.8895  0.2147 -1.3928
 1455SOL    HW3 5824   0.220   2.158   2.677 -0.9905  0.3331  0.0311
 1455SOL    MW4 5825   0.236   2.078   2.707 -0.6555  0.2871 -0.2671
 1456SOL     OW 5826   0.184   2.326   2.620 -0.0667  0.1420  0.2829
 1456SOL    HW2 5827   0.266   2.361   2.656  0.4338  0.0939 -0.7706
 1456SOL    HW3 5828   0.117   2.350   2.684  0.4210  2.1761  0.0607
 1456SOL    MW4 5829   0.186   2.334   2.633  0.0637  0.4041  0.1146
 1457SOL     OW 5830   4.474   2.421   2.786  0.2951  0.3134 -0.1553
 1457SOL    HW2 5831   4.474   2.422   2.882  0.4620  1.3211 -0.1618
 1457SOL    HW3 5832   4.384   2.400   2.762 -0.0686  1.4034  0.2184
 1457SOL    MW4 5833   4.462   2.418   2.795  0.2691  0.5902 -0.1069
 1458SOL     OW 5834   4.467   2.663   2.642  0.1662 -0.1245  0.0595
 1458SOL    HW2 5835   4.393   2.715   2.676  0.4318  0.4424 -0.2333
 1458SOL    HW3 5836   4.461   2.581   2.690 -0.5485 -0.0101  0.1793
 1458SOL    MW4 5837   4.456   2.659   2.653  0.1069 -0.0346  0.0367
 1459SOL     OW 5838   0.185   2.792   2.796  0.4145  0.0109 -0.0921
 1459SOL    HW2 5839   0.194   2.872   2.744  1.5570 -0.5557 -0.7738
 1459SOL    HW3 5840   0.124   2.738   2.745  1.1067 -0.3202 -0.5670
 1459SOL    MW4 5841   0.178   2.796   2.782  0.6566 -0.1076 -0.2447
 1460SOL     OW 5842   0.204   3.046   2.664 -0.1968  0.3017  0.2132
 1460SOL    HW2 5843   0.284   3.091   2.691 -0.2050 -0.6366  1.9202
 1460SOL    HW3 5844   0.195   3.065   2.571  2.1347  0.2237 -0.0447
 1460SOL    MW4 5845   0.213   3.054   2.655  0.1097  0.1676  0.4044
 1461SOL     OW 5846   0.002   3.207   2.756 -0.4025 -0.0453  0.1790
 1461SOL    HW2 5847  -0.062   3.136   2.743  0.3568 -0.7740  0.3712
 1461SOL    HW3 5848   0.079   3.178   2.708  0.2503  0.1883  1.0726
 1461SOL    MW4 5849   0.003   3.194   2.748 -0.2162 -0.1106  0.3222
 1462SOL     OW 5850   4.480   3.481   2.652 -0.0009 -0.2136 -0.2199
 1462SOL    HW2 5851   4.567   3.508   2.682 -0.1892  0.5874 -0.4021
 1462SOL    HW3 5852   4.471   3.391   2.686 -0.0896  0.5583  1.9141
 1462SOL    MW4 5853   4.490   3.472   2.661 -0.0374 -0.0060  0.0376
 1463SOL     OW 5854   0.243   3.612   2.707  0.3585  0.2635  0.2694
 1463SOL    HW2 5855   0.233   3.601   2.802  0.9708  0.5168  0.3672
 1463SOL    HW3 5856   0.325   3.567   2.686 -0.7178 -1.4084 -0.4464
 1463SOL    MW4 5857   0.252   3.605   2.717  0.2973  0.0763  0.1879
 1464SOL     OW 5858   0.169   3.858   2.626 -0.1043 -0.0867 -0.4380
 1464SOL    HW2 5859   0.190   3.769   2.655 -0.8763  0.0176  0.5005
 1464SOL    HW3 5860   0.212   3.867   2.541 -0.6715 -1.6358 -0.9160
 1464SOL    MW4 5861   0.177   3.848   2.619 -0.2810 -0.2773 -0.3772
 1465SOL     OW 5862   4.454   3.996   2.744 -0.5039  0.3610 -0.3721
 1465SOL    HW2 5863   4.469   4.079   2.699  2.1467  0.1332  0.0227
 1465SOL    HW3 5864   4.525   3.939   2.713 -0.8836 -1.0016  1.2075
 1465SOL    MW4 5865   4.465   3.999   2.734 -0.2043  0.1511 -0.1116
 1466SOL     OW 5866   0.001   4.250   2.619 -0.1478 -0.0472 -0.5791
 1466SOL    HW2 5867  -0.056   4.305   2.673 -0.2780  0.0864 -0.8506
 1466SOL    HW3 5868   0.089   4.279   2.640 -0.2550  0.9604 -1.4504
 1466SOL    MW4 5869   0.005   4.261   2.629 -0.1791  0.1034 -0.7299
 1467SOL     OW 5870   0.234   4.388   2.739 -0.0927  0.0752 -0.1924
 1467SOL    HW2 5871   0.249   4.370   2.832  0.2465  0.8617 -0.0925
 1467SOL    HW3 5872   0.310   4.351   2.695 -0.3849 -0.5416 -0.1881
 1467SOL    MW4 5873   0.246   4.381   2.746 -0.0865  0.0976 -0.1786
 1468SOL     OW 5874   0.668   4.640   2.640  0.0899 -0.0205 -0.1307
 1468SOL    HW2 5875   0.748   4.679   2.676  0.0719 -2.0603  2.2484
 1468SOL    HW3 5876   0.597   4.687   2.682  0.0162  1.5862 -2.0143
 1468SOL    MW4 5877   0.669   4.651   2.650  0.0778 -0.0776 -0.0653
 1469SOL     OW 5878   0.441   0.089   2.733 -0.6073 -0.5655 -0.2461
 1469SOL    HW2 5879   0.419   0.078   2.825 -0.7677  1.0872 -0.0668
 1469SOL    HW3 5880   0.361   0.064   2.686 -0.5989 -1.1822  0.0623
 1469SOL    MW4 5881   0.427   0.084   2.739 -0.6273 -0.4288 -0.1818
 1470SOL     OW 5882   0.426   0.358   2.654 -0.4889 -0.3860 -0.1653
 1470SOL    HW2 5883   0.508   0.401   2.680 -0.5082 -0.4673  0.0309
 1470SOL    HW3 5884   0.433   0.269   2.690 -0.4008 -0.5842 -0.6594
 1470SOL    MW4 5885   0.438   0.352   2.662 -0.4799 -0.4228 -0.2046
 1471SOL     OW 5886   0.701   0.500   2.700  0.0192  0.0696 -0.1917
 1471SOL    HW2 5887   0.697   0.476   2.792 -1.0263 -0.9782 -0.5004
 1471SOL    HW3 5888   0.774   0.448   2.665 -0.3582 -0.4631 -0.2067
 1471SOL    MW4 5889   0.710   0.490   2.708 -0.1685 -0.1390 -0.2344
 1472SOL     OW 5890   0.688   0.751   2.588 -0.3795 -0.0014 -0.0538
 1472SOL    HW2 5891   0.751   0.808   2.633 -0.6885  1.2369 -1.1458
 1472SOL    HW3 5892   0.691   0.669   2.637 -0.0457  1.0038  1.6766
 1472SOL    MW4 5893   0.697   0.748   2.601 -0.3763  0.2946  0.0304
 1473SOL     OW 5894   0.463   0.868   2.704  0.0520 -0.1473  0.0910
 1473SOL    HW2 5895   0.454   0.961   2.686 -1.5634 -0.4761 -0.8982
 1473SOL    HW3 5896   0.547   0.843   2.666  0.7196  0.9951  0.7991
 1473SOL    MW4 5897   0.473   0.877   2.697 -0.0730 -0.0400  0.0539
 1474SOL     OW 5898   0.416   1.129   2.649  0.2438 -0.0597  0.0286
 1474SOL    HW2 5899   0.497   1.179   2.660  0.2352 -0.1994  0.7950
 1474SOL    HW3 5900   0.401   1.128   2.555  1.9728 -1.3802 -0.2602
 1474SOL    MW4 5901   0.425   1.135   2.638  0.4707 -0.2523  0.0916
 1475SOL     OW 5902   0.646   1.293   2.698 -0.2356  0.1009 -0.4353
 1475SOL    HW2 5903   0.653   1.280   2.793  0.4688  0.0067 -0.4949
 1475SOL    HW3 5904   0.729   1.260   2.664 -0.5591 -0.0248 -1.1040
 1475SOL    MW4 5905   0.658   1.287   2.706 -0.1854  0.0718 -0.5314
 1476SOL     OW 5906   0.635   1.571   2.638  0.3800 -0.0474 -0.4497
 1476SOL    HW2 5907   0.549   1.604   2.664 -0.1296  0.3134 -2.5549
 1476SOL    HW3 5908   0.631   1.477   2.654 -0.4040 -0.0357 -0.5925
 1476SOL    MW4 5909   0.623   1.563   2.644  0.2093  0.0017 -0.7463
 1477SOL     OW 5910   0.405   1.695   2.752  0.4189  0.3963 -0.6591
 1477SOL    HW2 5911   0.419   1.696   2.846  0.3520 -1.0800 -0.6261
 1477SOL    HW3 5912   0.412   1.787   2.726 -1.0993  1.0164  1.0007
 1477SOL    MW4 5913   0.408   1.707   2.761  0.2097  0.2834 -0.4358
 1478SOL     OW 5914   0.460   1.932   2.633 -0.2134  0.3903 -0.0734
 1478SOL    HW2 5915   0.546   1.975   2.637  0.7256 -1.4026 -0.5353
 1478SOL    HW3 5916   0.444   1.919   2.540  0.0026 -1.1965  0.0963
 1478SOL    MW4 5917   0.469   1.936   2.622 -0.0610 -0.0556 -0.1120
 1479SOL     OW 5918   0.680   2.063   2.726 -0.3039  0.0743  0.3177
 1479SOL    HW2 5919   0.669   2.067   2.821  0.2373 -0.0856  0.3899
 1479SOL    HW3 5920   0.762   2.014   2.713 -0.3989  0.0521 -0.2301
 1479SOL    MW4 5921   0.689   2.057   2.737 -0.2450  0.0503  0.2550
 1480SOL     OW 5922   0.664   2.314   2.628  0.8292 -0.2315 -0.1952
 1480SOL    HW2 5923   0.738   2.353   2.674  1.1799 -1.0520 -0.0573
 1480SOL    HW3 5924   0.670   2.221   2.647 -0.3636 -0.2842 -0.0133
 1480SOL    MW4 5925   0.675   2.307   2.636  0.7181 -0.3467 -0.1530
 1481SOL     OW 5926   0.420   2.399   2.732  0.0397  0.0624 -0.3129
 1481SOL    HW2 5927   0.417   2.491   2.705 -0.7055 -0.5122 -2.3012
 1481SOL    HW3 5928   0.500   2.365   2.692 -0.1841 -0.3733 -0.3939
 1481SOL    MW4 5929   0.430   2.407   2.723 -0.0881 -0.0709 -0.5860
 1482SOL     OW 5930   0.393   2.662   2.657 -0.1042 -0.2809  0.1467
 1482SOL    HW2 5931   0.472   2.703   2.692  0.6076 -0.8159 -0.8227
 1482SOL    HW3 5932   0.321   2.709   2.699  0.7206  0.5686  0.6231
 1482SOL    MW4 5933   0.394   2.674   2.667  0.0986 -0.2394  0.0817
 1483SOL     OW 5934   0.622   2.807   2.710 -0.4560  0.4817  0.0021
 1483SOL    HW2 5935   0.658   2.815   2.798  0.1760 -0.6200 -0.1389
 1483SOL    HW3 5936   0.630   2.894   2.672  0.6823  0.5975  0.5080
 1483SOL    MW4 5937   0.628   2.819   2.717 -0.2225  0.3516  0.0503
 1484SOL     OW 5938   0.672   3.091   2.640 -0.2457  0.1175 -0.2269
 1484SOL    HW2 5939   0.756   3.124   2.670  0.2340 -1.1390 -0.1520
 1484SOL    HW3 5940   0.675   3.099   2.545 -0.2892  0.6244 -0.1899
 1484SOL    MW4 5941   0.683   3.096   2.632 -0.1882  0.0186 -0.2121
 1485SOL     OW 5942   0.424   3.193   2.736  0.5629 -0.3024 -0.4623
 1485SOL    HW2 5943   0.435   3.217   2.828  0.8894  1.6001 -0.9707
 1485SOL    HW3 5944   0.509   3.155   2.711  1.0696  0.7668 -0.4200
 1485SOL    MW4 5945   0.437   3.191   2.745  0.6728  0.0897 -0.5238
 1486SOL     OW 5946   0.466   3.478   2.635  0.2501 -0.0219  0.1362
 1486SOL    HW2 5947   0.452   3.387   2.661  1.4978 -0.3105 -0.1338
 1486SOL    HW3 5948   0.459   3.476   2.539 -1.3887  0.4817  0.2390
 1486SOL    MW4 5949   0.463   3.466   2.626  0.1985  0.0065  0.1141
 1487SOL     OW 5950   0.694   3.624   2.715 -0.6712 -0.0468  0.3091
 1487SOL    HW2 5951   0.700   3.624   2.810 -1.2726  0.5040  0.3518
 1487SOL    HW3 5952   0.622   3.565   2.695 -0.2041 -0.5787  0.1631
 1487SOL    MW4 5953   0.686   3.616   2.725 -0.6889 -0.0443  0.2955
 1488SOL     OW 5954   0.655   3.886   2.668 -0.2280 -0.1307  0.3433
 1488SOL    HW2 5955   0.568   3.923   2.680 -0.5705 -0.7988 -0.1077
 1488SOL    HW3 5956   0.643   3.791   2.672  0.3183 -0.2581 -0.7752
 1488SOL    MW4 5957   0.642   3.878   2.670 -0.2011 -0.2357  0.1362
 1489SOL     OW 5958   0.397   3.979   2.743 -0.1010  0.1431 -0.5969
 1489SOL    HW2 5959   0.402   4.068   2.706  0.8596 -0.0571 -0.9515
 1489SOL    HW3 5960   0.326   3.937   2.694 -0.6182  0.7435 -0.3689
 1489SOL    MW4 5961   0.388   3.986   2.732 -0.0425  0.1959 -0.6136
 1490SOL     OW 5962   0.447   4.241   2.653  0.4312  0.0814 -0.0630
 1490SOL    HW2 5963   0.520   4.280   2.701  0.7779 -0.1349 -0.4164
 1490SOL    HW3 5964   0.465   4.261   2.561  0.2770 -0.3535 -0.1898
 1490SOL    MW4 5965   0.459   4.249   2.647  0.4566 -0.0046 -0.1263
 1491SOL     OW 5966   0.655   4.385   2.755  0.7340  0.3652  0.3985
 1491SOL    HW2 5967   0.741   4.363   2.720 -0.1432 -0.8189 -1.0848
 1491SOL    HW3 5968   0.637   4.473   2.723  0.3236 -0.3671 -1.4154
 1491SOL    MW4 5969   0.664   4.394   2.746  0.5641  0.1123 -0.0365
 1492SOL     OW 5970   1.172   4.587   2.608 -0.3148  0.0827  0.0502
 1492SOL    HW2 5971   1.220   4.642   2.671 -1.2249 -0.0779  0.9061
 1492SOL    HW3 5972   1.181   4.498   2.643  0.4123 -0.2057 -0.8562
 1492SOL    MW4 5973   1.180   4.583   2.621 -0.3390  0.0234  0.0435
 1493SOL     OW 5974   0.923   0.093   2.680  0.3875  0.1466 -0.2809
 1493SOL    HW2 5975   0.920   0.095   2.776 -1.4856 -2.6266 -0.2353
 1493SOL    HW3 5976   1.001   0.041   2.660 -0.2914 -0.9186 -0.2069
 1493SOL    MW4 5977   0.933   0.087   2.690  0.0508 -0.3598 -0.2651
 1494SOL     OW 5978   0.951   0.365   2.606 -0.3125  0.0117 -0.2234
 1494SOL    HW2 5979   0.932   0.271   2.615 -2.8269  0.4179 -0.8596
 1494SOL    HW3 5980   0.960   0.379   2.512  1.2801  0.1961 -0.0476
 1494SOL    MW4 5981   0.949   0.354   2.595 -0.4341  0.0896 -0.2842
 1495SOL     OW 5982   1.112   0.568   2.734  0.2076 -0.4899 -0.1110
 1495SOL    HW2 5983   1.123   0.643   2.675 -0.0435 -0.6213 -0.3278
 1495SOL    HW3 5984   1.055   0.508   2.686  0.6086 -0.9313 -0.0393
 1495SOL    MW4 5985   1.106   0.570   2.720  0.2274 -0.5655 -0.1302
 1496SOL     OW 5986   1.130   0.808   2.598  0.6167 -0.1662 -0.0699
 1496SOL    HW2 5987   1.202   0.865   2.625  0.1817  0.6273 -0.5742
 1496SOL    HW3 5988   1.141   0.799   2.503  0.8879 -1.2117  0.0513
 1496SOL    MW4 5989   1.141   0.814   2.589  0.5951 -0.1994 -0.1204
 1497SOL     OW 5990   0.881   0.909   2.707  0.4130 -0.3485 -0.7141
 1497SOL    HW2 5991   0.885   0.873   2.796  1.3303  0.9182 -0.2230
 1497SOL    HW3 5992   0.964   0.883   2.667  0.6750  0.3981 -0.6682
 1497SOL    MW4 5993   0.892   0.901   2.714  0.5686 -0.0829 -0.6433
 1498SOL     OW 5994   0.885   1.167   2.623 -0.0736 -0.3957 -0.1295
 1498SOL    HW2 5995   0.871   1.075   2.644 -2.6451  0.2601  1.2271
 1498SOL    HW3 5996   0.900   1.168   2.528  3.1995 -2.5073  0.3158
 1498SOL    MW4 5997   0.885   1.155   2.613  0.0189 -0.5878  0.1082
 1499SOL     OW 5998   1.109   1.319   2.729 -0.0572 -0.2015 -0.6974
 1499SOL    HW2 5999   1.095   1.400   2.681 -1.6424  0.7013  1.2010
 1499SOL    HW3 6000   1.038   1.261   2.699  0.5528 -0.5916 -1.4057
 1499SOL    MW4 6001   1.098   1.322   2.719 -0.1859 -0.1339 -0.5404
 1500SOL     OW 6002   1.121   1.564   2.616 -0.6902 -0.2831 -0.0386
 1500SOL    HW2 6003   1.041   1.608   2.644  0.5086  1.3753  0.8464
 1500SOL    HW3 6004   1.123   1.575   2.521 -0.3790  1.6877  0.1741
 1500SOL    MW4 6005   1.111   1.571   2.607 -0.4910  0.1957  0.1062
 1501SOL     OW 6006   0.876   1.667   2.715 -0.3316  0.4849 -0.2929
 1501SOL    HW2 6007   0.865   1.663   2.810  2.2737 -3.0606 -0.0527
 1501SOL    HW3 6008   0.792   1.641   2.679 -0.3608 -1.3913  1.0916
 1501SOL    MW4 6009   0.864   1.663   2.723  0.0083 -0.2304 -0.0785
 1502SOL     OW 6010   0.905   1.951   2.622 -0.6988 -0.0390  0.4341
 1502SOL    HW2 6011   0.977   1.996   2.667 -0.0673 -0.7937  0.1918
 1502SOL    HW3 6012   0.905   1.862   2.658  1.1459 -1.3073 -2.4585
 1502SOL    MW4 6013   0.915   1.945   2.632 -0.3721 -0.3059  0.0205
 1503SOL     OW 6014   1.131   2.062   2.762 -0.1512  0.1162 -0.0850
 1503SOL    HW2 6015   1.196   2.009   2.715 -1.9785 -0.7525 -1.6662
 1503SOL    HW3 6016   1.132   2.147   2.717 -0.4493 -0.0465 -0.3951
 1503SOL    MW4 6017   1.140   2.066   2.750 -0.4316 -0.0199 -0.3346
 1504SOL     OW 6018   1.129   2.324   2.660  0.0098 -0.1133  0.0437
 1504SOL    HW2 6019   1.205   2.381   2.667  0.2929 -0.4578 -0.2206
 1504SOL    HW3 6020   1.128   2.297   2.568 -0.5730  0.0908 -0.0103
 1504SOL    MW4 6021   1.139   2.328   2.649 -0.0297 -0.1318  0.0017
 1505SOL     OW 6022   0.888   2.434   2.756 -0.3960  0.0648  0.2890
 1505SOL    HW2 6023   0.892   2.518   2.712  0.1733 -0.7841 -1.3283
 1505SOL    HW3 6024   0.967   2.388   2.727 -1.6584 -1.7365 -0.3595
 1505SOL    MW4 6025   0.899   2.439   2.746 -0.4875 -0.2848 -0.0100
 1506SOL     OW 6026   0.859   2.684   2.644  0.1333  0.5049  0.2618
 1506SOL    HW2 6027   0.914   2.750   2.687  0.0987  0.7294 -0.0388
 1506SOL    HW3 6028   0.770   2.711   2.663  0.1332 -0.3742  1.5283
 1506SOL    MW4 6029   0.855   2.696   2.652  0.1288  0.4185  0.3892
 1507SOL     OW 6030   1.083   2.832   2.718  0.0000  0.0000 -0.1634
 1507SOL    HW2 6031   1.106   2.825   2.810  0.0000  0.0000 -0.1611
 1507SOL    HW3 6032   1.159   2.795   2.672  0.0000  0.0000 -0.1551
 1507SOL    MW4 6033   1.096   2.826   2.724  0.0000  0.0000 -0.1620
 1508SOL     OW 6034   1.148   3.096   2.657  0.0000  0.0000  0.2658
 1508SOL    HW2 6035   1.122   3.007   2.679  0.0000  0.0000  0.2689
 1508SOL    HW3 6036   1.136   3.101   2.562  0.0000  0.0000  0.2661
 1508SOL    MW4 6037   1.143   3.085   2.647  0.0000  0.0000  0.2662
 1509SOL     OW 6038   0.919   3.208   2.726  0.0000  0.0000 -0.3328
 1509SOL    HW2 6039   0.903   3.287   2.674  0.0000  0.0000 -0.3300
 1509SOL    HW3 6040   1.006   3.179   2.699  0.0000  0.0000 -0.3155
 1509SOL    MW4 6041   0.928   3.215   2.716  0.0000  0.0000 -0.3301
 1510SOL     OW 6042   0.887   3.462   2.611  0.0000  0.0000 -0.7302
 1510SOL    HW2 6043   0.961   3.509   2.651  0.0000  0.0000 -0.7154
 1510SOL    HW3 6044   0.810   3.512   2.640  0.0000  0.0000 -0.7469
 1510SOL    MW4 6045   0.887   3.475   2.620  0.0000  0.0000 -0.7305
 1511SOL     OW 6046   1.102   3.599   2.687  0.0000  0.0000 -0.1171
 1511SOL    HW2 6047   1.101   3.626   2.779  0.0000  0.0000 -0.1175
 1511SOL    HW3 6048   1.100   3.681   2.638  0.0000  0.0000 -0.1177
 1511SOL    MW4 6049   1.102   3.613   2.693  0.0000  0.0000 -0.1172
 1512SOL     OW 6050   1.098   3.851   2.585  0.0000  0.0000  0.0160
 1512SOL    HW2 6051   1.178   3.889   2.623  0.0000  0.0000  0.0207
 1512SOL    HW3 6052   1.110   3.859   2.491  0.0000  0.0000  0.0167
 1512SOL    MW4 6053   1.110   3.857   2.578  0.0000  0.0000  0.0167
 1513SOL     OW 6054   0.893   4.008   2.730  0.0000  0.0000 -0.2327
 1513SOL    HW2 6055   0.957   3.963   2.675  0.0000  0.0000 -0.2447
 1513SOL    HW3 6056   0.809   3.969   2.705  0.0000  0.0000 -0.1922
 1513SOL    MW4 6057   0.890   3.997   2.720  0.0000  0.0000 -0.2289
 1514SOL     OW 6058   0.888   4.266   2.666  0.0000  0.0000 -0.2582
 1514SOL    HW2 6059   0.892   4.173   2.690  0.0000  0.0000 -0.2524
 1514SOL    HW3 6060   0.884   4.265   2.570  0.0000  0.0000 -0.2580
 1514SOL    MW4 6061   0.888   4.254   2.656  0.0000  0.0000 -0.2574
 1515SOL     OW 6062   1.144   4.351   2.750  0.0000  0.0000  0.3058
 1515SOL    HW2 6063   1.137   4.378   2.842  0.0000  0.0000  0.3060
 1515SOL    HW3 6064   1.055   4.327   2.725  0.0000  0.0000  0.3141
 1515SOL    MW4 6065   1.131   4.351   2.759  0.0000  0.0000  0.3069
 1516SOL     OW 6066   1.537   0.017   2.637 -0.2586 -0.0690  0.0012
 1516SOL    HW2 6067   1.528  -0.074   2.666 -1.0332  0.0893  0.2875
 1516SOL    HW3 6068   1.523   0.013   2.543 -0.6326 -0.2104  0.0584
 1516SOL    MW4 6069   1.534   0.004   2.629 -0.4101 -0.0667  0.0465
 1517SOL     OW 6070   1.316   0.116   2.753  0.1850 -0.3510  0.1968
 1517SOL    HW2 6071   1.305   0.207   2.725 -1.1252 -0.6739 -0.3718
 1517SOL    HW3 6072   1.397   0.088   2.710  0.5160  0.5001  0.2564
 1517SOL    MW4 6073   1.325   0.125   2.743  0.0558 -0.2813  0.1296
 1518SOL     OW 6074   1.333   0.377   2.661 -0.4026  0.2710  0.1006
 1518SOL    HW2 6075   1.414   0.386   2.710 -0.3864  0.0504  0.1139
 1518SOL    HW3 6076   1.274   0.442   2.699 -0.1387  0.6227 -0.0964
 1518SOL    MW4 6077   1.336   0.387   2.672 -0.3657  0.2883  0.0763
 1519SOL     OW 6078   1.577   0.463   2.755  0.2659 -0.0400  0.2251
 1519SOL    HW2 6079   1.644   0.421   2.701  0.1576  0.9407 -0.6932
 1519SOL    HW3 6080   1.583   0.556   2.732 -0.9629  0.1477  0.6295
 1519SOL    MW4 6081   1.587   0.470   2.745  0.0895  0.1141  0.1573
 1520SOL     OW 6082   1.573   0.754   2.677 -0.2202  0.0840 -0.0231
 1520SOL    HW2 6083   1.501   0.815   2.693  0.0741  0.8684 -1.6146
 1520SOL    HW3 6084   1.570   0.737   2.582  1.2264 -0.4628  0.0144
 1520SOL    MW4 6085   1.563   0.759   2.666  0.0095  0.1154 -0.2281
 1521SOL     OW 6086   1.363   0.929   2.713  0.4657  0.0924  0.3050
 1521SOL    HW2 6087   1.358   0.942   2.808 -0.8576  1.2547  0.0948
 1521SOL    HW3 6088   1.347   1.016   2.676  0.4843 -0.4430 -1.0021
 1521SOL    MW4 6089   1.360   0.942   2.720  0.2935  0.1751  0.1048
 1522SOL     OW 6090   1.322   1.181   2.604 -0.2251  0.5458  0.3384
 1522SOL    HW2 6091   1.406   1.202   2.645  0.0911  1.5322 -0.7764
 1522SOL    HW3 6092   1.258   1.233   2.652 -0.5586 -1.9999  2.7457
 1522SOL    MW4 6093   1.325   1.190   2.616 -0.2274  0.3400  0.5089
 1523SOL     OW 6094   1.570   1.252   2.732 -0.8509 -0.2814  0.3962
 1523SOL    HW2 6095   1.575   1.259   2.828  0.3457  0.8655  0.2587
 1523SOL    HW3 6096   1.650   1.205   2.708 -1.2403 -0.7254 -0.0371
 1523SOL    MW4 6097   1.581   1.247   2.742 -0.7444 -0.1887  0.3209
 1524SOL     OW 6098   1.558   1.545   2.667  0.1020 -0.4699  0.2026
 1524SOL    HW2 6099   1.584   1.456   2.691  2.1259  0.1423  0.4168
 1524SOL    HW3 6100   1.575   1.550   2.573 -1.6585 -0.8458 -0.1403
 1524SOL    MW4 6101   1.564   1.534   2.658  0.1368 -0.4388  0.1856
 1525SOL     OW 6102   1.326   1.713   2.687 -0.1637 -0.6692 -0.1046
 1525SOL    HW2 6103   1.406   1.660   2.678 -0.4317 -1.1300  0.2531
 1525SOL    HW3 6104   1.255   1.653   2.666 -0.3866 -0.1131 -0.9672
 1525SOL    MW4 6105   1.327   1.698   2.683 -0.2285 -0.6566 -0.1712
 1526SOL     OW 6106   1.350   1.966   2.597  0.0804  0.4202 -0.2045
 1526SOL    HW2 6107   1.349   1.872   2.617 -0.6897  0.0159 -2.0681
 1526SOL    HW3 6108   1.350   1.970   2.502  0.2630  2.3271 -0.1378
 1526SOL    MW4 6109   1.350   1.954   2.587  0.0029  0.6185 -0.4416
 1527SOL     OW 6110   1.555   2.062   2.766 -0.2291 -0.9900  0.0079
 1527SOL    HW2 6111   1.625   2.019   2.716 -0.9673  0.1444 -2.1016
 1527SOL    HW3 6112   1.477   2.011   2.747 -0.5271 -0.5170 -0.0530
 1527SOL    MW4 6113   1.554   2.050   2.757 -0.3658 -0.7779 -0.2785
 1528SOL     OW 6114   1.541   2.310   2.638 -0.0018 -0.2422 -0.1172
 1528SOL    HW2 6115   1.619   2.348   2.678 -0.5372  0.3553  0.3597
 1528SOL    HW3 6116   1.524   2.230   2.689  1.3114 -1.3154 -1.3253
 1528SOL    MW4 6117   1.549   2.304   2.650  0.1009 -0.3050 -0.2137
 1529SOL     OW 6118   1.357   2.480   2.742  0.0090 -0.1546  0.3456
 1529SOL    HW2 6119   1.352   2.561   2.690  0.0702  0.6201  1.5090
 1529SOL    HW3 6120   1.410   2.421   2.690 -0.6575  0.2910 -0.8765
 1529SOL    MW4 6121   1.363   2.483   2.728 -0.0708  0.0064  0.3378
 1530SOL     OW 6122   1.351   2.721   2.592 -0.0488 -0.3112  0.5340
 1530SOL    HW2 6123   1.434   2.758   2.623  0.8286 -0.3731 -1.6792
 1530SOL    HW3 6124   1.357   2.725   2.497 -2.3732 -0.8354  0.3453
 1530SOL    MW4 6125   1.363   2.726   2.584 -0.2397 -0.3885  0.2171
 1531SOL     OW 6126   1.575   2.815   2.726  0.2061  0.1609  0.0616
 1531SOL    HW2 6127   1.570   2.829   2.821  0.7468  0.5355  0.0331
 1531SOL    HW3 6128   1.649   2.756   2.714 -1.2512 -1.7507  0.0654
 1531SOL    MW4 6129   1.584   2.809   2.737  0.0852 -0.0419  0.0583
 1532SOL     OW 6130   1.595   3.072   2.639  0.5216 -0.0239 -0.0153
 1532SOL    HW2 6131   1.656   3.122   2.693  0.9346 -1.2217  0.6473
 1532SOL    HW3 6132   1.596   2.984   2.677 -0.5907 -0.4017 -0.8376
 1532SOL    MW4 6133   1.603   3.067   2.651  0.4293 -0.2318 -0.0364
 1533SOL     OW 6134   1.370   3.250   2.702 -0.1164  0.3466  0.1509
 1533SOL    HW2 6135   1.440   3.197   2.665 -0.6699 -0.7945  0.7316
 1533SOL    HW3 6136   1.290   3.199   2.688 -0.8526  1.6285 -0.5134
 1533SOL    MW4 6137   1.368   3.236   2.695 -0.2865  0.3652  0.1399
 1534SOL     OW 6138   1.339   3.506   2.628 -0.5192 -0.1169  0.3454
 1534SOL    HW2 6139   1.342   3.415   2.658 -0.0915  0.0574  0.8448
 1534SOL    HW3 6140   1.255   3.539   2.660 -0.0917  0.0512  1.3276
 1534SOL    MW4 6141   1.328   3.499   2.636 -0.4063 -0.0717  0.5409
 1535SOL     OW 6142   1.571   3.567   2.778 -0.6272  0.1293  0.0256
 1535SOL    HW2 6143   1.641   3.525   2.729  0.1358  1.0201  0.3523
 1535SOL    HW3 6144   1.491   3.545   2.729 -0.1239 -0.8269 -0.3762
 1535SOL    MW4 6145   1.570   3.558   2.765 -0.4601  0.1207  0.0157
 1536SOL     OW 6146   1.568   3.832   2.629  0.3354  0.5322 -0.1343
 1536SOL    HW2 6147   1.480   3.858   2.658  0.6263  1.1410  0.2357
 1536SOL    HW3 6148   1.587   3.752   2.679  0.1338  0.6032  0.0594
 1536SOL    MW4 6149   1.559   3.825   2.640  0.3472  0.6219 -0.0600
 1537SOL     OW 6150   1.330   3.960   2.703 -0.5326 -0.4400  0.3850
 1537SOL    HW2 6151   1.330   3.949   2.798 -1.0334 -0.5249  0.3791
 1537SOL    HW3 6152   1.344   4.054   2.690 -1.8299 -0.2047  0.5856
 1537SOL    MW4 6153   1.332   3.971   2.714 -0.7699 -0.4201  0.4107
 1538SOL     OW 6154   1.345   4.228   2.629  0.0892 -0.3435 -0.1689
 1538SOL    HW2 6155   1.266   4.260   2.673  0.2605  0.6984 -0.6270
 1538SOL    HW3 6156   1.331   4.248   2.536  0.8388 -0.2698 -0.2659
 1538SOL    MW4 6157   1.333   4.235   2.623  0.2107 -0.1964 -0.2421
 1539SOL     OW 6158   1.539   4.418   2.702 -0.7071 -0.5422 -0.4428
 1539SOL    HW2 6159   1.539   4.422   2.798  0.3508 -0.6260 -0.4326
 1539SOL    HW3 6160   1.467   4.358   2.681 -0.8926 -0.5916  0.3014
 1539SOL    MW4 6161   1.529   4.411   2.712 -0.5920 -0.5598 -0.3432
 1540SOL     OW 6162   1.988   4.614   2.590 -0.1593  0.1326  0.4550
 1540SOL    HW2 6163   2.066   4.657   2.624  0.0379  1.3376 -1.4515
 1540SOL    HW3 6164   1.996   4.621   2.494 -1.6966 -1.3440  0.1803
 1540SOL    MW4 6165   2.000   4.620   2.582 -0.3361  0.0968  0.1672
 1541SOL     OW 6166   1.792   0.099   2.746  0.6617 -0.0674  0.1448
 1541SOL    HW2 6167   1.859   0.061   2.688  1.0913  2.0910 -0.8374
 1541SOL    HW3 6168   1.709   0.068   2.709  0.9440  1.0303 -1.4996
 1541SOL    MW4 6169   1.790   0.090   2.733  0.7556  0.3622 -0.2017
 1542SOL     OW 6170   1.795   0.351   2.630  0.1780 -0.1382  0.1532
 1542SOL    HW2 6171   1.860   0.411   2.666 -0.5485 -0.1368  1.4733
 1542SOL    HW3 6172   1.793   0.277   2.691 -0.5813 -0.4532 -0.2341
 1542SOL    MW4 6173   1.803   0.349   2.642 -0.0180 -0.1796  0.2763
 1543SOL     OW 6174   2.003   0.493   2.750 -0.4005 -0.3099 -0.0226
 1543SOL    HW2 6175   2.067   0.435   2.709 -0.5746 -0.0128 -0.7240
 1543SOL    HW3 6176   2.031   0.581   2.723 -1.0489 -0.1748 -0.2537
 1543SOL    MW4 6177   2.015   0.497   2.741 -0.5090 -0.2529 -0.1457
 1544SOL     OW 6178   2.050   0.755   2.647  0.4224  0.0312  0.0439
 1544SOL    HW2 6179   1.965   0.784   2.680  0.4772  0.6026 -0.2999
 1544SOL    HW3 6180   2.036   0.740   2.553  0.2427 -1.6772  0.3263
 1544SOL    MW4 6181   2.037   0.757   2.639  0.4059 -0.1188  0.0358
 1545SOL     OW 6182   1.817   0.851   2.749  0.5856  0.4685  0.1285
 1545SOL    HW2 6183   1.804   0.940   2.715 -0.4686 -0.2457 -1.3834
 1545SOL    HW3 6184   1.731   0.810   2.741  0.7441 -0.2782  2.0817
 1545SOL    MW4 6185   1.804   0.858   2.743  0.4674  0.2758  0.1867
 1546SOL     OW 6186   1.816   1.131   2.675  0.1141  0.0474 -0.1679
 1546SOL    HW2 6187   1.880   1.185   2.722 -0.2779  0.3297  0.0404
 1546SOL    HW3 6188   1.827   1.156   2.583 -0.1328  0.5486 -0.0607
 1546SOL    MW4 6189   1.826   1.141   2.669  0.0298  0.1508 -0.1263
 1547SOL     OW 6190   2.020   1.293   2.788  0.2520  0.3908 -0.3081
 1547SOL    HW2 6191   2.025   1.286   2.884 -0.5743 -0.1559 -0.2939
 1547SOL    HW3 6192   2.100   1.251   2.757 -0.2732 -0.9759  0.1033
 1547SOL    MW4 6193   2.031   1.286   2.797  0.0737  0.1383 -0.2519
 1548SOL     OW 6194   1.996   1.568   2.665  0.2097 -0.2076 -0.4347
 1548SOL    HW2 6195   1.917   1.616   2.690  0.6475  0.3504 -0.1284
 1548SOL    HW3 6196   1.981   1.480   2.700 -0.6020 -0.3082 -1.0216
 1548SOL    MW4 6197   1.984   1.562   2.673  0.1604 -0.1473 -0.4717
 1549SOL     OW 6198   1.766   1.701   2.746  0.2761 -0.2703  0.5668
 1549SOL    HW2 6199   1.768   1.694   2.841 -1.4557  1.3654  0.7455
 1549SOL    HW3 6200   1.688   1.651   2.720  0.0350  0.3268  0.1229
 1549SOL    MW4 6201   1.756   1.693   2.755  0.0158  0.0243  0.5318
 1550SOL     OW 6202   1.764   1.939   2.627 -0.3552 -0.2084  0.3704
 1550SOL    HW2 6203   1.834   1.996   2.658 -0.2855  0.4974 -1.0090
 1550SOL    HW3 6204   1.779   1.855   2.670  0.3817  0.4055  1.3256
 1550SOL    MW4 6205   1.775   1.936   2.636 -0.2488 -0.0343  0.3145
 1551SOL     OW 6206   2.002   2.055   2.713 -0.0017 -0.3217  0.3332
 1551SOL    HW2 6207   1.992   2.077   2.806 -1.4185  0.9395 -0.1004
 1551SOL    HW3 6208   2.008   2.139   2.668  1.0264 -0.9252 -0.6975
 1551SOL    MW4 6209   2.002   2.069   2.719 -0.0530 -0.2349  0.1400
 1552SOL     OW 6210   2.026   2.317   2.609 -0.1041  0.0409 -0.8725
 1552SOL    HW2 6211   2.094   2.374   2.645 -1.2693  0.8791  0.0379
 1552SOL    HW3 6212   2.035   2.326   2.514  1.7559 -0.7150 -0.8012
 1552SOL    MW4 6213   2.036   2.325   2.601 -0.0124  0.0518 -0.7430
 1553SOL     OW 6214   1.802   2.435   2.718 -0.1053 -0.3017 -0.3790
 1553SOL    HW2 6215   1.819   2.451   2.811 -0.2849 -0.4907 -0.3152
 1553SOL    HW3 6216   1.878   2.384   2.689  0.8860  1.3404 -0.7757
 1553SOL    MW4 6217   1.814   2.430   2.726  0.0018 -0.1100 -0.4230
 1554SOL     OW 6218   1.802   2.694   2.623  0.2706 -0.4650  0.7351
 1554SOL    HW2 6219   1.813   2.601   2.638  2.1925 -0.1898  1.1212
 1554SOL    HW3 6220   1.775   2.701   2.532 -2.3840 -1.5337  1.3738
 1554SOL    MW4 6221   1.800   2.683   2.613  0.1740 -0.5697  0.8703
 1555SOL     OW 6222   2.036   2.847   2.740  0.2032 -0.0458 -0.3863
 1555SOL    HW2 6223   2.121   2.815   2.707  0.9370  0.7075  0.7362
 1555SOL    HW3 6224   1.971   2.798   2.690  1.3048 -2.4869  0.5217
 1555SOL    MW4 6225   2.039   2.837   2.729  0.4454 -0.2685 -0.1184
 1556SOL     OW 6226   1.996   3.104   2.652  0.2124 -0.0386  0.2252
 1556SOL    HW2 6227   2.012   3.015   2.684 -3.1642 -1.4062 -1.5645
 1556SOL    HW3 6228   1.979   3.093   2.558 -2.0943  2.1889  0.3045
 1556SOL    MW4 6229   1.996   3.091   2.644 -0.5375  0.0748 -0.0005
 1557SOL     OW 6230   1.779   3.225   2.776  0.3539  0.2402  0.2193
 1557SOL    HW2 6231   1.756   3.308   2.733 -1.4304  0.3203  1.2516
 1557SOL    HW3 6232   1.853   3.191   2.726 -0.1169  1.5240 -1.3869
 1557SOL    MW4 6233   1.786   3.232   2.764  0.0564  0.4201  0.1436
 1558SOL     OW 6234   1.765   3.455   2.632 -0.0877  0.1604 -0.1627
 1558SOL    HW2 6235   1.839   3.511   2.653  1.0211 -0.8958 -1.1760
 1558SOL    HW3 6236   1.760   3.455   2.536  1.0701 -2.8749 -0.2842
 1558SOL    MW4 6237   1.774   3.462   2.622  0.2113 -0.3794 -0.3124
 1559SOL     OW 6238   1.983   3.631   2.712  0.4863  0.2228 -0.0375
 1559SOL    HW2 6239   1.993   3.641   2.807 -0.0889  0.4455 -0.0020
 1559SOL    HW3 6240   2.065   3.591   2.684  0.3124 -0.6405  0.6734
 1559SOL    MW4 6241   1.995   3.627   2.721  0.3875  0.1383  0.0610
 1560SOL     OW 6242   1.982   3.890   2.641  0.1242 -0.0485  0.0170
 1560SOL    HW2 6243   1.896   3.921   2.669  0.2357  0.0501  0.2447
 1560SOL    HW3 6244   1.983   3.798   2.665  0.2129  0.0322  0.3144
 1560SOL    MW4 6245   1.971   3.882   2.648  0.1506 -0.0248  0.0863
 1561SOL     OW 6246   1.753   4.015   2.725  0.0507  0.3712  0.3443
 1561SOL    HW2 6247   1.740   4.097   2.679  0.3921 -0.6333 -1.6178
 1561SOL    HW3 6248   1.682   3.958   2.695  0.2388 -0.2949  1.1163
 1561SOL    MW4 6249   1.742   4.018   2.715  0.1206  0.1507  0.1873
 1562SOL     OW 6250   1.735   4.252   2.614  0.1088  0.0245  0.3490
 1562SOL    HW2 6251   1.660   4.305   2.642 -0.0061 -0.2613  0.5773
 1562SOL    HW3 6252   1.752   4.282   2.525  0.9431  1.4577  0.9718
 1562SOL    MW4 6253   1.727   4.263   2.606  0.2037  0.1759  0.4613
 1563SOL     OW 6254   1.989   4.354   2.706  0.0138 -0.3733 -0.2522
 1563SOL    HW2 6255   1.901   4.316   2.693  0.3327 -1.1706 -0.1087
 1563SOL    HW3 6256   1.985   4.439   2.662 -0.3305 -1.1074 -1.6782
 1563SOL    MW4 6257   1.977   4.360   2.698  0.0104 -0.5754 -0.4214
 1564SOL     OW 6258   2.439   4.666   2.669 -0.4377  0.0406  0.5266
 1564SOL    HW2 6259   2.508   4.722   2.706 -0.5661  0.6031 -0.0746
 1564SOL    HW3 6260   2.467   4.651   2.579 -0.0924 -1.3815  0.8633
 1564SOL    MW4 6261   2.452   4.672   2.662 -0.4091 -0.0728  0.4917
 1565SOL     OW 6262   2.188   0.064   2.728 -0.6488 -0.5827  0.1672
 1565SOL    HW2 6263   2.186   0.065   2.824  0.0690  0.3880  0.1800
 1565SOL    HW3 6264   2.277   0.037   2.707 -0.9084 -1.1262 -0.2299
 1565SOL    MW4 6265   2.200   0.061   2.738 -0.5883 -0.5263  0.1165
 1566SOL     OW 6266   2.213   0.336   2.672  0.2289  0.1322  0.4329
 1566SOL    HW2 6267   2.201   0.242   2.683 -1.0648  0.1133 -1.0261
 1566SOL    HW3 6268   2.231   0.348   2.579  0.3505  1.3283  0.5989
 1566SOL    MW4 6269   2.214   0.325   2.661  0.0743  0.2875  0.2623
 1567SOL     OW 6270   2.443   0.495   2.751 -0.2427 -0.4713  0.5439
 1567SOL    HW2 6271   2.430   0.587   2.729  0.1052 -0.6654 -0.4985
 1567SOL    HW3 6272   2.366   0.450   2.717  0.2661 -0.7635 -0.2527
 1567SOL    MW4 6273   2.431   0.501   2.744 -0.1297 -0.5355  0.3013
 1568SOL     OW 6274   2.435   0.763   2.667 -0.1659  0.2644  0.1847
 1568SOL    HW2 6275   2.356   0.812   2.692  0.4115  1.3364 -0.0859
 1568SOL    HW3 6276   2.436   0.766   2.572  0.3225  0.4354  0.1952
 1568SOL    MW4 6277   2.424   0.769   2.658 -0.0253  0.4284  0.1504
 1569SOL     OW 6278   2.240   0.923   2.746  0.0433 -0.2944  0.2381
 1569SOL    HW2 6279   2.233   0.909   2.841 -1.1030  0.2297  0.2415
 1569SOL    HW3 6280   2.171   0.867   2.709  1.7066 -1.9503 -0.4344
 1569SOL    MW4 6281   2.230   0.914   2.754  0.1115 -0.4437  0.1498
 1570SOL     OW 6282   2.242   1.179   2.653  0.1987  0.2727  0.5743
 1570SOL    HW2 6283   2.251   1.090   2.689 -0.9690  1.1269  3.1083
 1570SOL    HW3 6284   2.210   1.165   2.564 -0.6542 -1.8528  1.1607
 1570SOL    MW4 6285   2.239   1.165   2.646 -0.0679  0.1050  0.9860
 1571SOL     OW 6286   2.486   1.299   2.742  0.1807  0.0524  0.0494
 1571SOL    HW2 6287   2.545   1.247   2.687 -0.6495 -0.4307 -0.3964
 1571SOL    HW3 6288   2.400   1.260   2.727 -0.4087  1.4046 -0.0840
 1571SOL    MW4 6289   2.483   1.287   2.733 -0.0066  0.1670 -0.0270
 1572SOL     OW 6290   2.465   1.563   2.656 -0.0820 -0.4483  0.4825
 1572SOL    HW2 6291   2.396   1.607   2.707  0.6926  1.1480  0.1958
 1572SOL    HW3 6292   2.474   1.477   2.697 -0.6455  0.1870  1.9976
 1572SOL    MW4 6293   2.457   1.558   2.668 -0.0541 -0.1539  0.6446
 1573SOL     OW 6294   2.240   1.667   2.761 -0.0645 -0.6132 -0.1132
 1573SOL    HW2 6295   2.236   1.753   2.721  1.3463 -0.4681  0.0491
 1573SOL    HW3 6296   2.161   1.622   2.731 -0.6375  0.6209 -0.4453
 1573SOL    MW4 6297   2.229   1.672   2.752  0.0461 -0.4312 -0.1356
 1574SOL     OW 6298   2.235   1.920   2.658 -0.6093  0.0290  0.1231
 1574SOL    HW2 6299   2.150   1.957   2.682 -1.0297 -0.9084  0.0797
 1574SOL    HW3 6300   2.230   1.907   2.564  0.2482  1.6573 -0.1641
 1574SOL    MW4 6301   2.223   1.924   2.649 -0.5516  0.1202  0.0795
 1575SOL     OW 6302   2.463   2.069   2.751  0.3664  0.2339  0.0671
 1575SOL    HW2 6303   2.435   2.156   2.722  0.1129  0.6470  1.5302
 1575SOL    HW3 6304   2.388   2.012   2.732  0.0829  0.5639  0.2004
 1575SOL    MW4 6305   2.449   2.073   2.745  0.2956  0.3320  0.2778
 1576SOL     OW 6306   2.446   2.319   2.643 -0.7060 -0.0844 -0.5931
 1576SOL    HW2 6307   2.530   2.360   2.663 -0.9009 -0.2870  0.7150
 1576SOL    HW3 6308   2.450   2.299   2.550  0.4498  0.4731 -0.6667
 1576SOL    MW4 6309   2.457   2.322   2.634 -0.5792 -0.0376 -0.4302
 1577SOL     OW 6310   2.228   2.473   2.703 -0.4341 -0.2374  0.0898
 1577SOL    HW2 6311   2.225   2.463   2.798  2.1233  1.7581  0.4508
 1577SOL    HW3 6312   2.310   2.432   2.677 -1.0152 -0.5792 -1.2255
 1577SOL    MW4 6313   2.239   2.467   2.712 -0.1734 -0.0192 -0.0361
 1578SOL     OW 6314   2.270   2.735   2.637  0.3360 -0.3851 -0.0355
 1578SOL    HW2 6315   2.347   2.768   2.683  0.1075 -1.0507  0.8227
 1578SOL    HW3 6316   2.267   2.642   2.657 -2.2678  0.1215  2.2787
 1578SOL    MW4 6317   2.280   2.727   2.646 -0.0377 -0.4061  0.3830
 1579SOL     OW 6318   2.477   2.848   2.765 -0.0449 -0.0991  0.0023
 1579SOL    HW2 6319   2.550   2.805   2.720  0.9332  0.6455  0.8359
 1579SOL    HW3 6320   2.482   2.939   2.735  0.5645  0.3818  1.5407
 1579SOL    MW4 6321   2.488   2.854   2.755  0.1646  0.0626  0.3152
 1580SOL     OW 6322   2.466   3.087   2.625 -0.6380 -0.5606 -0.0675
 1580SOL    HW2 6323   2.389   3.140   2.643 -0.0608  0.5316 -0.8149
 1580SOL    HW3 6324   2.466   3.074   2.531 -0.0910 -0.8402 -0.0338
 1580SOL    MW4 6325   2.456   3.092   2.615 -0.4897 -0.4534 -0.1617
 1581SOL     OW 6326   2.258   3.238   2.735 -0.0714 -0.8850  0.0976
 1581SOL    HW2 6327   2.270   3.241   2.830 -1.9604  0.9737  0.3061
 1581SOL    HW3 6328   2.174   3.192   2.723 -0.1708 -0.5158 -0.6422
 1581SOL    MW4 6329   2.248   3.232   2.746 -0.3338 -0.5911  0.0275
 1582SOL     OW 6330   2.214   3.505   2.636  0.1407  0.2939 -0.0529
 1582SOL    HW2 6331   2.290   3.554   2.665 -0.7505  2.1219 -0.7677
 1582SOL    HW3 6332   2.232   3.415   2.664  1.9404  0.9413  0.9562
 1582SOL    MW4 6333   2.226   3.499   2.644  0.2606  0.6205 -0.0141
 1583SOL     OW 6334   2.420   3.650   2.729 -0.0428 -0.0470  0.4128
 1583SOL    HW2 6335   2.424   3.670   2.823 -2.3003 -0.5590  0.6411
 1583SOL    HW3 6336   2.411   3.736   2.688 -0.0641  0.1090  0.7355
 1583SOL    MW4 6337   2.419   3.664   2.736 -0.3435 -0.0939  0.4855
 1584SOL     OW 6338   2.451   3.900   2.579  0.3393  0.6213  0.1026
 1584SOL    HW2 6339   2.513   3.944   2.636  0.5985  2.3528 -1.4788
 1584SOL    HW3 6340   2.365   3.934   2.606  0.2915  0.0766  0.6489
 1584SOL    MW4 6341   2.448   3.910   2.590  0.3672  0.7779 -0.0339
 1585SOL     OW 6342   2.237   3.989   2.695 -0.1111  0.3963 -0.0009
 1585SOL    HW2 6343   2.240   3.986   2.790  1.2776 -1.4130 -0.0684
 1585SOL    HW3 6344   2.153   3.950   2.672  0.0385 -0.2099  0.4667
 1585SOL    MW4 6345   2.226   3.984   2.704  0.0918  0.0776  0.0519
 1586SOL     OW 6346   2.248   4.274   2.649  0.1804 -0.0738 -0.0553
 1586SOL    HW2 6347   2.250   4.179   2.647  2.2564 -0.0834  1.3535
 1586SOL    HW3 6348   2.161   4.296   2.684  0.0948 -1.4582  0.6102
 1586SOL    MW4 6349   2.237   4.265   2.653  0.4430 -0.2577  0.2183
 1587SOL     OW 6350   2.456   4.410   2.766 -0.1110 -0.7604 -0.1048
 1587SOL    HW2 6351   2.382   4.363   2.728 -0.7804  1.0860 -1.1616
 1587SOL    HW3 6352   2.448   4.499   2.732  1.3908  0.0113  1.4560
 1587SOL    MW4 6353   2.445   4.416   2.757 -0.0012 -0.4150 -0.0383
 1588SOL     OW 6354   2.881   4.640   2.654  0.5636 -0.0923 -0.0589
 1588SOL    HW2 6355   2.961   4.679   2.689  0.8926 -2.2660  1.6977
 1588SOL    HW3 6356   2.885   4.658   2.560  3.4504 -0.7428 -0.1073
 1588SOL    MW4 6357   2.892   4.647   2.646  0.9879 -0.4649  0.1664
 1589SOL     OW 6358   2.688   0.129   2.775  0.1418 -0.3375  0.6654
 1589SOL    HW2 6359   2.679   0.100   2.866 -0.5426  0.0998  0.7434
 1589SOL    HW3 6360   2.751   0.069   2.737  1.2830  0.1629  1.7352
 1589SOL    MW4 6361   2.695   0.118   2.782  0.2021 -0.2138  0.8168
 1590SOL     OW 6362   2.723   0.390   2.679  0.7193  0.0225 -0.2709
 1590SOL    HW2 6363   2.703   0.305   2.717 -1.0205  0.6826  0.3477
 1590SOL    HW3 6364   2.649   0.445   2.704  0.2991  0.8992 -3.3347
 1590SOL    MW4 6365   2.711   0.386   2.687  0.4343  0.2253 -0.5935
 1591SOL     OW 6366   2.955   0.498   2.781  0.0205 -0.1934  0.2699
 1591SOL    HW2 6367   2.927   0.589   2.768  0.2970 -0.2469 -0.7536
 1591SOL    HW3 6368   2.885   0.446   2.739  1.6722 -0.3284 -2.4539
 1591SOL    MW4 6369   2.942   0.503   2.774  0.2749 -0.2183 -0.2245
 1592SOL     OW 6370   2.897   0.747   2.687  0.1571  0.2275 -0.1170
 1592SOL    HW2 6371   2.977   0.797   2.705  0.2279  0.5593 -1.3071
 1592SOL    HW3 6372   2.826   0.806   2.714  0.2484  0.8882 -1.2748
 1592SOL    MW4 6373   2.899   0.762   2.693  0.1785  0.3584 -0.4268
 1593SOL     OW 6374   2.666   0.902   2.748 -0.1131  0.4553  0.0652
 1593SOL    HW2 6375   2.670   0.904   2.843  3.1774 -0.3038 -0.0145
 1593SOL    HW3 6376   2.579   0.867   2.728 -1.4547  2.1379  2.7387
 1593SOL    MW4 6377   2.655   0.898   2.758  0.1441  0.5772  0.4074
 1594SOL     OW 6378   2.703   1.154   2.617  0.5566  0.3609 -0.2521
 1594SOL    HW2 6379   2.766   1.205   2.668 -0.3327  1.0920  0.1099
 1594SOL    HW3 6380   2.703   1.068   2.659  0.9981  0.4798  0.0025
 1594SOL    MW4 6381   2.711   1.149   2.629  0.4975  0.4731 -0.1708
 1595SOL     OW 6382   2.913   1.286   2.727  0.5628  0.2161 -0.3939
 1595SOL    HW2 6383   2.926   1.258   2.818 -0.0967  0.0372 -0.3523
 1595SOL    HW3 6384   2.982   1.242   2.678 -0.2702 -1.2533 -0.2797
 1595SOL    MW4 6385   2.924   1.276   2.733  0.3659 -0.0014 -0.3733
 1596SOL     OW 6386   2.930   1.545   2.604 -0.2863  0.1584  0.1035
 1596SOL    HW2 6387   2.856   1.588   2.646 -0.1917  0.3557  0.0680
 1596SOL    HW3 6388   2.929   1.456   2.639 -0.6169  0.1244  0.0040
 1596SOL    MW4 6389   2.920   1.539   2.614 -0.3174  0.1799  0.0857
 1597SOL     OW 6390   2.687   1.695   2.698 -0.0010  0.4289 -0.0549
 1597SOL    HW2 6391   2.694   1.687   2.793 -0.2474 -1.5319 -0.1703
 1597SOL    HW3 6392   2.608   1.645   2.675  2.3294 -2.7351 -1.6632
 1597SOL    MW4 6393   2.678   1.687   2.707  0.2739 -0.2473 -0.2823
 1598SOL     OW 6394   2.657   1.953   2.585  0.0636 -0.0328 -0.3061
 1598SOL    HW2 6395   2.674   1.865   2.617  0.3524  0.1182 -0.0453
 1598SOL    HW3 6396   2.605   1.995   2.654 -1.2903 -0.4574 -1.0505
 1598SOL    MW4 6397   2.652   1.947   2.598 -0.0769 -0.0689 -0.3699
 1599SOL     OW 6398   2.875   2.066   2.718  0.0011 -0.0077  0.4501
 1599SOL    HW2 6399   2.876   2.160   2.698  0.1185  0.0801  0.8546
 1599SOL    HW3 6400   2.796   2.033   2.677  0.3500  0.1296 -0.3374
 1599SOL    MW4 6401   2.865   2.074   2.710  0.0626  0.0220  0.3996
 1600SOL     OW 6402   2.912   2.341   2.638 -0.4071  0.0679 -0.6955
 1600SOL    HW2 6403   2.991   2.388   2.664  0.4566 -2.0702  0.6885
 1600SOL    HW3 6404   2.840   2.401   2.661  0.6724  0.8622  0.7304
 1600SOL    MW4 6405   2.913   2.355   2.645 -0.1507 -0.1094 -0.3248
 1601SOL     OW 6406   2.692   2.482   2.695 -0.2065  0.1501 -0.6529
 1601SOL    HW2 6407   2.702   2.483   2.790 -0.7238 -1.2133 -0.5675
 1601SOL    HW3 6408   2.679   2.574   2.671 -1.8324  0.3299  0.7888
 1601SOL    MW4 6409   2.691   2.494   2.704 -0.4893 -0.0061 -0.4514
 1602SOL     OW 6410   2.676   2.747   2.611  0.3524 -0.2023  0.0065
 1602SOL    HW2 6411   2.747   2.807   2.633 -0.2262  0.0377  1.2898
 1602SOL    HW3 6412   2.674   2.745   2.516  1.5484  0.4161 -0.0424
 1602SOL    MW4 6413   2.685   2.754   2.602  0.4338 -0.0890  0.1693
 1603SOL     OW 6414   2.911   2.855   2.712  0.0504  0.4616 -0.5834
 1603SOL    HW2 6415   2.923   2.852   2.807 -0.7235  0.3707 -0.4882
 1603SOL    HW3 6416   2.904   2.949   2.692  0.6331  0.5024 -0.6061
 1603SOL    MW4 6417   2.911   2.867   2.722  0.0252  0.4550 -0.5739
 1604SOL     OW 6418   2.927   3.126   2.666  0.0470  0.3838 -0.3257
 1604SOL    HW2 6419   2.846   3.155   2.707 -0.1443 -1.1640  0.4603
 1604SOL    HW3 6420   2.909   3.127   2.572 -0.2401  1.8701 -0.2619
 1604SOL    MW4 6421   2.914   3.130   2.659 -0.0161  0.3757 -0.2136
 1605SOL     OW 6422   2.675   3.228   2.757 -0.0723  0.2097  0.6416
 1605SOL    HW2 6423   2.667   3.320   2.733 -0.2201  0.3532  1.2313
 1605SOL    HW3 6424   2.610   3.184   2.702  0.0173  0.4502  0.3384
 1605SOL    MW4 6425   2.665   3.234   2.747 -0.0799  0.2604  0.6794
 1606SOL     OW 6426   2.663   3.498   2.646  0.0708  0.2241  0.2770
 1606SOL    HW2 6427   2.588   3.550   2.674 -0.8017 -1.3176  0.8471
 1606SOL    HW3 6428   2.661   3.501   2.551  0.1311  1.3544  0.3015
 1606SOL    MW4 6429   2.653   3.505   2.637 -0.0364  0.1698  0.3554
 1607SOL     OW 6430   2.934   3.617   2.756 -0.3080 -0.1842 -0.0594
 1607SOL    HW2 6431   2.917   3.623   2.850 -0.1240  0.4656 -0.0693
 1607SOL    HW3 6432   2.853   3.580   2.720 -0.5056 -0.1141  0.3071
 1607SOL    MW4 6433   2.921   3.613   2.764 -0.3098 -0.0892 -0.0124
 1608SOL     OW 6434   2.883   3.866   2.629 -0.2005  0.3841  0.4697
 1608SOL    HW2 6435   2.968   3.905   2.649  0.8556 -1.1544 -0.8503
 1608SOL    HW3 6436   2.894   3.773   2.647 -1.3468  0.0376 -0.5028
 1608SOL    MW4 6437   2.895   3.859   2.634 -0.2124  0.1354  0.1672
 1609SOL     OW 6438   2.665   3.969   2.750 -0.2079 -0.0151 -0.3180
 1609SOL    HW2 6439   2.671   4.061   2.725  1.6580 -0.1837 -0.5772
 1609SOL    HW3 6440   2.741   3.928   2.708 -0.5174 -1.4952  0.5411
 1609SOL    MW4 6441   2.676   3.975   2.741 -0.0026 -0.2326 -0.2388
 1610SOL     OW 6442   2.642   4.217   2.654 -0.1304  0.6751  0.2669
 1610SOL    HW2 6443   2.716   4.277   2.656 -1.1385  2.0278 -1.8357
 1610SOL    HW3 6444   2.574   4.260   2.705  0.1093 -0.0352  1.2095
 1610SOL    MW4 6445   2.642   4.230   2.661 -0.2318  0.7599  0.1139
 1611SOL     OW 6446   2.862   4.371   2.703  0.1781  0.3901 -0.1809
 1611SOL    HW2 6447   2.886   4.364   2.795  0.5093 -0.1349 -0.3016
 1611SOL    HW3 6448   2.858   4.465   2.686  0.3891  0.4890  0.2990
 1611SOL    MW4 6449   2.865   4.382   2.713  0.2496  0.3339 -0.1335
 1612SOL     OW 6450   3.347   4.646   2.609 -0.3570 -0.6374 -0.0106
 1612SOL    HW2 6451   3.331   4.553   2.626  2.1329 -0.9607  0.7164
 1612SOL    HW3 6452   3.268   4.690   2.641 -0.8729 -2.3532  1.1257
 1612SOL    MW4 6453   3.335   4.640   2.615 -0.0966 -0.9064  0.2353
 1613SOL     OW 6454   3.126   0.094   2.741 -0.0690  0.0628 -0.1095
 1613SOL    HW2 6455   3.128   0.094   2.837 -0.8520  1.2022 -0.0790
 1613SOL    HW3 6456   3.123   0.187   2.718 -0.6197 -0.2289 -1.2125
 1613SOL    MW4 6457   3.126   0.107   2.751 -0.2449  0.1746 -0.2510
 1614SOL     OW 6458   3.154   0.359   2.651  0.3715  0.5411  0.1339
 1614SOL    HW2 6459   3.085   0.417   2.684  0.9715  0.9554  0.6868
 1614SOL    HW3 6460   3.143   0.359   2.556 -1.6120 -0.9418  0.3291
 1614SOL    MW4 6461   3.143   0.367   2.643  0.1890  0.4001  0.2326
 1615SOL     OW 6462   3.385   0.509   2.715  0.2911  0.8459  0.1303
 1615SOL    HW2 6463   3.377   0.603   2.701 -2.4253  1.0459  2.5311
 1615SOL    HW3 6464   3.305   0.472   2.677  0.6504 -0.3316  0.4910
 1615SOL    MW4 6465   3.373   0.516   2.708 -0.0199  0.7169  0.4947
 1616SOL     OW 6466   3.389   0.796   2.626 -0.1051  0.3767 -0.0168
 1616SOL    HW2 6467   3.473   0.827   2.660  0.5614 -1.1751 -0.2135
 1616SOL    HW3 6468   3.405   0.779   2.533 -0.7039  0.3381 -0.1187
 1616SOL    MW4 6469   3.402   0.798   2.618 -0.0962  0.1669 -0.0562
 1617SOL     OW 6470   3.127   0.897   2.716  0.4910 -0.7103 -0.3858
 1617SOL    HW2 6471   3.136   0.910   2.811 -0.8219 -1.5696 -0.1308
 1617SOL    HW3 6472   3.213   0.866   2.688  0.7426 -0.9499  0.6226
 1617SOL    MW4 6473   3.140   0.894   2.725  0.3510 -0.8553 -0.2191
 1618SOL     OW 6474   3.130   1.187   2.594 -0.9171 -0.0625  0.3148
 1618SOL    HW2 6475   3.130   1.095   2.620 -2.5020 -0.0799  0.2545
 1618SOL    HW3 6476   3.125   1.185   2.498  0.5245  0.0814  0.2156
 1618SOL    MW4 6477   3.129   1.174   2.585 -0.9360 -0.0458  0.2938
 1619SOL     OW 6478   3.348   1.303   2.727  0.2399 -0.5031 -0.0184
 1619SOL    HW2 6479   3.353   1.264   2.814 -2.8896  0.4704  0.6615
 1619SOL    HW3 6480   3.285   1.248   2.680 -0.8484  1.1143 -0.4697
 1619SOL    MW4 6481   3.341   1.290   2.732 -0.3166 -0.1613  0.0117
 1620SOL     OW 6482   3.361   1.565   2.648 -0.9841 -0.0589  0.1170
 1620SOL    HW2 6483   3.283   1.610   2.681 -0.4301  1.1646 -0.2029
 1620SOL    HW3 6484   3.360   1.480   2.692 -2.6917 -0.1918 -0.1814
 1620SOL    MW4 6485   3.351   1.560   2.658 -1.1363  0.0850  0.0354
 1621SOL     OW 6486   3.129   1.687   2.738  0.5652 -0.3271 -0.3940
 1621SOL    HW2 6487   3.113   1.779   2.716 -0.2556 -0.7792 -1.7684
 1621SOL    HW3 6488   3.054   1.640   2.700  0.8631 -1.5379  0.4851
 1621SOL    MW4 6489   3.117   1.693   2.730  0.4962 -0.5465 -0.4594
 1622SOL     OW 6490   3.117   1.944   2.657  0.2234  0.2281 -0.4099
 1622SOL    HW2 6491   3.190   1.997   2.688  0.3678 -0.7729  0.9938
 1622SOL    HW3 6492   3.040   2.000   2.668  0.5377  0.6084 -0.1440
 1622SOL    MW4 6493   3.117   1.958   2.663  0.2839  0.1462 -0.1896
 1623SOL     OW 6494   3.351   2.048   2.741 -0.5075  0.1237 -0.0895
 1623SOL    HW2 6495   3.341   2.052   2.837 -0.2029  0.0514 -0.0566
 1623SOL    HW3 6496   3.349   2.139   2.713 -0.5485  0.1477 -0.0111
 1623SOL    MW4 6497   3.349   2.060   2.750 -0.4727  0.1173 -0.0749
 1624SOL     OW 6498   3.352   2.319   2.659 -0.1114  0.4548  0.2278
 1624SOL    HW2 6499   3.430   2.367   2.686  1.3347 -1.5113 -0.3604
 1624SOL    HW3 6500   3.358   2.314   2.564 -0.4841 -0.4940  0.2483
 1624SOL    MW4 6501   3.363   2.325   2.650  0.0302  0.0702  0.1529
 1625SOL     OW 6502   3.136   2.487   2.721  0.0100  0.0617 -0.3244
 1625SOL    HW2 6503   3.150   2.569   2.673  1.7867 -0.2417 -0.3630
 1625SOL    HW3 6504   3.210   2.432   2.696 -1.8042 -2.0396 -1.2660
 1625SOL    MW4 6505   3.147   2.490   2.712  0.0051 -0.2556 -0.4538
 1626SOL     OW 6506   3.145   2.741   2.594 -0.2902  0.3574  0.5660
 1626SOL    HW2 6507   3.202   2.789   2.653  0.6859 -1.3911  1.0851
 1626SOL    HW3 6508   3.056   2.767   2.620  0.2251  3.3114 -0.4507
 1626SOL    MW4 6509   3.141   2.751   2.605 -0.0935  0.5164  0.5003
 1627SOL     OW 6510   3.354   2.832   2.758  0.1356 -0.2134 -0.1557
 1627SOL    HW2 6511   3.362   2.845   2.852 -1.3920  0.3492 -0.0735
 1627SOL    HW3 6512   3.442   2.810   2.728  0.6137 -0.4667  1.4104
 1627SOL    MW4 6513   3.366   2.831   2.766 -0.0029 -0.1726  0.0618
 1628SOL     OW 6514   3.398   3.112   2.678 -0.2764 -0.2674 -0.5588
 1628SOL    HW2 6515   3.374   3.020   2.685 -0.9709 -0.1942 -1.8597
 1628SOL    HW3 6516   3.413   3.126   2.585 -0.8402  1.0910 -0.4552
 1628SOL    MW4 6517   3.397   3.102   2.667 -0.4424 -0.0785 -0.7168
 1629SOL     OW 6518   3.179   3.265   2.767  0.1628  0.1691  0.3275
 1629SOL    HW2 6519   3.254   3.207   2.757  0.3997  0.6082 -0.4613
 1629SOL    HW3 6520   3.103   3.212   2.742  0.1752 -0.3514  1.3689
 1629SOL    MW4 6521   3.179   3.251   2.763  0.1957  0.1584  0.3608
 1630SOL     OW 6522   3.152   3.511   2.635 -0.3155 -0.1211 -0.1694
 1630SOL    HW2 6523   3.159   3.422   2.670 -0.1657  0.3578  1.0318
 1630SOL    HW3 6524   3.071   3.545   2.674 -0.3886  0.2617 -0.6529
 1630SOL    MW4 6525   3.142   3.504   2.645 -0.3054 -0.0074 -0.0747
 1631SOL     OW 6526   3.348   3.647   2.739  0.2411  0.0448 -0.1487
 1631SOL    HW2 6527   3.337   3.635   2.833 -0.2597  1.5729  0.0009
 1631SOL    HW3 6528   3.280   3.593   2.699 -0.3287  0.3637  0.4014
 1631SOL    MW4 6529   3.338   3.638   2.746  0.0998  0.2885 -0.0564
 1632SOL     OW 6530   3.371   3.904   2.642 -0.2524  0.0879 -0.0426
 1632SOL    HW2 6531   3.359   3.814   2.673  0.7065 -0.5474 -1.4417
 1632SOL    HW3 6532   3.353   3.900   2.548 -0.1612  1.3473 -0.1208
 1632SOL    MW4 6533   3.367   3.891   2.634 -0.1138  0.1703 -0.2375
 1633SOL     OW 6534   3.115   3.990   2.694  0.3186  0.1597 -0.2191
 1633SOL    HW2 6535   3.107   4.079   2.658 -0.7129 -0.0227 -0.4622
 1633SOL    HW3 6536   3.205   3.965   2.674  0.2918  0.7346 -1.1439
 1633SOL    MW4 6537   3.126   3.999   2.686  0.1790  0.2115 -0.3732
 1634SOL     OW 6538   3.102   4.269   2.607  0.2165 -0.1248  0.3479
 1634SOL    HW2 6539   3.026   4.319   2.636  0.1751  0.1364 -0.1936
 1634SOL    HW3 6540   3.108   4.288   2.513  0.8803 -0.2337  0.3657
 1634SOL    MW4 6541   3.092   4.278   2.598  0.2986 -0.1047  0.2788
 1635SOL     OW 6542   3.343   4.353   2.689  0.5461  0.0393 -0.1605
 1635SOL    HW2 6543   3.344   4.370   2.783  0.0148  1.5441 -0.4090
 1635SOL    HW3 6544   3.258   4.314   2.672  0.9469 -0.9498  0.0993
 1635SOL    MW4 6545   3.332   4.350   2.699  0.5289  0.1073 -0.1590
 1636SOL     OW 6546   3.773   4.631   2.625 -0.8329  0.3139  0.0729
 1636SOL    HW2 6547   3.793   4.551   2.673  0.5998  0.3796 -0.3898
 1636SOL    HW3 6548   3.684   4.654   2.653 -0.6122 -0.4906  1.5068
 1636SOL    MW4 6549   3.764   4.624   2.635 -0.6147  0.2164  0.2010
 1637SOL     OW 6550   3.548   0.065   2.758 -0.1029  0.4548 -0.0096
 1637SOL    HW2 6551   3.562   0.154   2.725 -1.7847  0.8142  0.1769
 1637SOL    HW3 6552   3.477   0.031   2.704 -0.1132 -0.4251  0.5572
 1637SOL    MW4 6553   3.540   0.072   2.747 -0.3261  0.3862  0.0898
 1638SOL     OW 6554   3.567   0.316   2.662 -0.1583 -0.2546  0.0126
 1638SOL    HW2 6555   3.648   0.366   2.673 -0.1951 -0.3724  0.8223
 1638SOL    HW3 6556   3.498   0.376   2.691 -0.3120 -0.3378 -0.1830
 1638SOL    MW4 6557   3.569   0.330   2.667 -0.1834 -0.2812  0.0936
 1639SOL     OW 6558   3.797   0.470   2.728  0.0803  0.4804 -0.4831
 1639SOL    HW2 6559   3.790   0.462   2.823 -0.1770  0.8499 -0.4673
 1639SOL    HW3 6560   3.882   0.432   2.706  0.0183  0.1456 -0.1358
 1639SOL    MW4 6561   3.807   0.464   2.737  0.0382  0.4850 -0.4352
 1640SOL     OW 6562   3.791   0.703   2.600  0.3649 -0.1232  0.2503
 1640SOL    HW2 6563   3.736   0.760   2.653 -0.7436 -1.6965  0.8462
 1640SOL    HW3 6564   3.780   0.616   2.640  0.2558 -1.1563 -1.9535
 1640SOL    MW4 6565   3.782   0.699   2.612  0.2043 -0.4671  0.0382
 1641SOL     OW 6566   3.615   0.892   2.732  0.4382  0.1510  0.3078
 1641SOL    HW2 6567   3.616   0.889   2.828  0.6001  1.0550  0.3407
 1641SOL    HW3 6568   3.625   0.985   2.711 -0.4885  0.0602 -0.5812
 1641SOL    MW4 6569   3.617   0.904   2.742  0.3373  0.2583  0.1948
 1642SOL     OW 6570   3.578   1.165   2.649 -0.1825  0.2713  0.3492
 1642SOL    HW2 6571   3.660   1.199   2.686 -0.9230  1.2141  1.1791
 1642SOL    HW3 6572   3.515   1.236   2.660 -1.1788 -0.5203 -0.0618
 1642SOL    MW4 6573   3.580   1.179   2.656 -0.4117  0.2912  0.4044
 1643SOL     OW 6574   3.798   1.289   2.748 -0.3269 -0.5056 -0.2570
 1643SOL    HW2 6575   3.868   1.241   2.704  0.3929 -0.0835  0.4300
 1643SOL    HW3 6576   3.800   1.376   2.707  0.3421 -0.1131  0.6088
 1643SOL    MW4 6577   3.807   1.294   2.737 -0.1436 -0.3981 -0.0521
 1644SOL     OW 6578   3.804   1.551   2.654 -0.3363  0.3047 -0.4202
 1644SOL    HW2 6579   3.880   1.606   2.673 -1.3029  1.4628  0.0933
 1644SOL    HW3 6580   3.729   1.601   2.684 -1.3311 -0.7925 -1.0227
 1644SOL    MW4 6581   3.804   1.565   2.661 -0.5951  0.3127 -0.4319
 1645SOL     OW 6582   3.589   1.686   2.744  0.2598  0.0565 -0.1435
 1645SOL    HW2 6583   3.587   1.776   2.711 -2.2805  0.2500  0.4234
 1645SOL    HW3 6584   3.512   1.645   2.706  0.2433 -1.2770  1.2770
 1645SOL    MW4 6585   3.579   1.693   2.735 -0.0775 -0.0939  0.1187
 1646SOL     OW 6586   3.587   1.943   2.648 -0.2915 -0.0241  0.0992
 1646SOL    HW2 6587   3.512   1.995   2.678  0.0762  0.8782 -0.5158
 1646SOL    HW3 6588   3.578   1.940   2.553  0.4699  0.1144  0.0191
 1646SOL    MW4 6589   3.576   1.950   2.640 -0.1425  0.1132  0.0075
 1647SOL     OW 6590   3.819   2.024   2.775  0.0778 -0.3887 -0.1544
 1647SOL    HW2 6591   3.896   1.993   2.727  0.1226  0.8537 -0.9030
 1647SOL    HW3 6592   3.744   1.993   2.723  0.0814 -0.7795  0.0676
 1647SOL    MW4 6593   3.819   2.016   2.762  0.0841 -0.2763 -0.2239
 1648SOL     OW 6594   3.798   2.285   2.635 -0.6136  0.1122  0.0205
 1648SOL    HW2 6595   3.787   2.196   2.668 -0.7578  0.1642  0.1141
 1648SOL    HW3 6596   3.811   2.274   2.540 -1.9693  0.0729 -0.1748
 1648SOL    MW4 6597   3.798   2.272   2.627 -0.8115  0.1139  0.0071
 1649SOL     OW 6598   3.593   2.450   2.709  0.4090  0.1409 -0.2196
 1649SOL    HW2 6599   3.602   2.450   2.805 -0.7927 -1.4000 -0.0873
 1649SOL    HW3 6600   3.666   2.397   2.678  0.8346  0.6921 -0.1598
 1649SOL    MW4 6601   3.604   2.443   2.718  0.3066  0.0103 -0.1943
 1650SOL     OW 6602   3.579   2.738   2.643  0.0200  0.1145 -0.0707
 1650SOL    HW2 6603   3.576   2.643   2.660  0.2734 -0.0865 -1.1727
 1650SOL    HW3 6604   3.580   2.746   2.548 -2.7369  1.3013 -0.0596
 1650SOL    MW4 6605   3.579   2.726   2.633 -0.3103  0.2446 -0.2146
 1651SOL     OW 6606   3.809   2.850   2.759 -0.1733  0.2456 -0.3515
 1651SOL    HW2 6607   3.878   2.784   2.753  0.0202  0.2945  1.1703
 1651SOL    HW3 6608   3.730   2.805   2.730  0.2132 -0.2522 -0.6420
 1651SOL    MW4 6609   3.808   2.836   2.754 -0.0967  0.1863 -0.1890
 1652SOL     OW 6610   3.838   3.109   2.638 -0.0177  0.2632  0.2869
 1652SOL    HW2 6611   3.782   3.162   2.695  0.5193  1.0730  0.0569
 1652SOL    HW3 6612   3.822   3.019   2.667 -0.6327  0.5753  0.9380
 1652SOL    MW4 6613   3.828   3.104   2.650 -0.0280  0.4112  0.3424
 1653SOL     OW 6614   3.644   3.265   2.765 -0.1105  0.3266  0.2876
 1653SOL    HW2 6615   3.608   3.353   2.752 -0.2269  0.5818  2.1228
 1653SOL    HW3 6616   3.577   3.207   2.729  0.2124  0.9937 -1.4390
 1653SOL    MW4 6617   3.630   3.269   2.759 -0.0832  0.4483  0.3019
 1654SOL     OW 6618   3.559   3.510   2.652  0.1042  0.0784 -0.1225
 1654SOL    HW2 6619   3.639   3.550   2.687  0.0383  0.6730 -0.6559
 1654SOL    HW3 6620   3.488   3.550   2.702  0.2206 -1.5637  1.4173
 1654SOL    MW4 6621   3.560   3.520   2.663  0.1108 -0.0598  0.0103
 1655SOL     OW 6622   3.785   3.619   2.744 -0.0582  0.1431  0.0625
 1655SOL    HW2 6623   3.850   3.560   2.707 -0.8721 -0.7358  0.0228
 1655SOL    HW3 6624   3.807   3.705   2.708  0.3862 -0.3476 -0.8489
 1655SOL    MW4 6625   3.796   3.623   2.735 -0.1069 -0.0376 -0.0630
 1656SOL     OW 6626   3.825   3.885   2.640 -0.0455 -0.3123  0.4852
 1656SOL    HW2 6627   3.905   3.937   2.651  0.6713 -1.2588 -0.2066
 1656SOL    HW3 6628   3.758   3.936   2.685  1.1414  0.0299  1.9362
 1656SOL    MW4 6629   3.827   3.899   2.648  0.2057 -0.3921  0.5854
 1657SOL     OW 6630   3.606   4.005   2.772 -0.4098  0.1896  0.0611
 1657SOL    HW2 6631   3.599   4.092   2.733 -1.3766  0.2645  0.3972
 1657SOL    HW3 6632   3.551   3.949   2.716 -0.7592  0.0415  0.5488
 1657SOL    MW4 6633   3.598   4.009   2.759 -0.5835  0.1800  0.1698
 1658SOL     OW 6634   3.592   4.245   2.641  0.1839  0.2713  0.2521
 1658SOL    HW2 6635   3.505   4.280   2.660  0.7633  2.0772 -0.2233
 1658SOL    HW3 6636   3.595   4.237   2.546  0.7341  0.7796  0.2232
 1658SOL    MW4 6637   3.581   4.249   2.631  0.3329  0.5766  0.1856
 1659SOL     OW 6638   3.809   4.385   2.774  0.3339  0.3624  0.5656
 1659SOL    HW2 6639   3.882   4.350   2.723 -0.0661  0.0681  0.1860
 1659SOL    HW3 6640   3.731   4.341   2.737 -0.1018  1.1787  0.5095
 1659SOL    MW4 6641   3.808   4.374   2.762  0.2237  0.4313  0.5081
 1660SOL     OW 6642   4.237   4.625   2.644  0.8569 -0.5755  0.1400
 1660SOL    HW2 6643   4.164   4.673   2.684  0.0446 -1.2784 -0.4613
 1660SOL    HW3 6644   4.315   4.667   2.678  0.1736 -0.4041  1.5418
 1660SOL    MW4 6645   4.237   4.637   2.654  0.6596 -0.6456  0.2456
 1661SOL     OW 6646   4.003   0.108   2.710  0.4905  0.0781 -0.1587
 1661SOL    HW2 6647   3.988   0.106   2.805  0.3768  1.1671 -0.1489
 1661SOL    HW3 6648   3.937   0.050   2.674 -0.2317  0.5822  0.3409
 1661SOL    MW4 6649   3.993   0.100   2.718  0.3802  0.2883 -0.0915
 1662SOL     OW 6650   4.043   0.374   2.658 -0.1174  0.0188  0.4018
 1662SOL    HW2 6651   4.038   0.281   2.678 -1.7258 -0.2434 -1.0865
 1662SOL    HW3 6652   4.022   0.380   2.565  0.0720  1.8677  0.4466
 1662SOL    MW4 6653   4.040   0.363   2.648 -0.3046  0.2282  0.2113
 1663SOL     OW 6654   4.255   0.521   2.767 -0.2444 -0.7990 -0.0185
 1663SOL    HW2 6655   4.180   0.475   2.730 -0.6144  0.3276 -0.6910
 1663SOL    HW3 6656   4.331   0.468   2.740 -0.7738 -1.8696  0.5646
 1663SOL    MW4 6657   4.255   0.508   2.758 -0.3631 -0.7916 -0.0303
 1664SOL     OW 6658   4.254   0.757   2.629  0.3487  0.4927 -0.0318
 1664SOL    HW2 6659   4.247   0.676   2.681 -0.4866  1.3192  1.1479
 1664SOL    HW3 6660   4.239   0.728   2.539  0.1940 -0.6909  0.3580
 1664SOL    MW4 6661   4.251   0.742   2.624  0.2180  0.4456  0.1753
 1665SOL     OW 6662   4.007   0.857   2.716  0.0476  0.2251  0.1534
 1665SOL    HW2 6663   4.091   0.830   2.681 -0.3348  1.4105 -1.7613
 1665SOL    HW3 6664   3.943   0.799   2.674 -0.3724  1.3628 -0.8073
 1665SOL    MW4 6665   4.009   0.846   2.706 -0.0583  0.5316 -0.2260
 1666SOL     OW 6666   4.011   1.130   2.617 -0.2661  0.2967  0.3452
 1666SOL    HW2 6667   4.095   1.171   2.638 -0.1842 -0.2175  1.0390
 1666SOL    HW3 6668   4.016   1.043   2.655 -1.0736  0.2220  0.3040
 1666SOL    MW4 6669   4.022   1.124   2.625 -0.3618  0.2190  0.4313
 1667SOL     OW 6670   4.234   1.303   2.728 -0.1614  0.1057  0.0121
 1667SOL    HW2 6671   4.233   1.389   2.688 -0.4850  0.1274  0.0703
 1667SOL    HW3 6672   4.304   1.256   2.682 -1.3117 -0.2592 -1.3694
 1667SOL    MW4 6673   4.243   1.308   2.717 -0.3558  0.0604 -0.1625
 1668SOL     OW 6674   4.239   1.565   2.598  0.7200 -0.1898  0.3202
 1668SOL    HW2 6675   4.320   1.597   2.637  0.5976 -0.1846  0.5685
 1668SOL    HW3 6676   4.264   1.541   2.508  0.9289  0.0866  0.3053
 1668SOL    MW4 6677   4.253   1.566   2.591  0.7314 -0.1527  0.3510
 1669SOL     OW 6678   4.024   1.703   2.730 -0.0843  0.3222  0.2625
 1669SOL    HW2 6679   4.031   1.681   2.823 -0.8921 -0.1274  0.2254
 1669SOL    HW3 6680   4.098   1.658   2.689  0.4765  0.8154  0.7407
 1669SOL    MW4 6681   4.034   1.694   2.737 -0.1169  0.3279  0.3207
 1670SOL     OW 6682   4.048   1.968   2.627  0.0080  0.2004 -0.1037
 1670SOL    HW2 6683   4.115   2.021   2.671  0.7152 -0.2091 -0.6761
 1670SOL    HW3 6684   4.047   1.886   2.676  0.8125 -0.2645 -0.8630
 1670SOL    MW4 6685   4.057   1.964   2.639  0.2074  0.0850 -0.2794
 1671SOL     OW 6686   4.233   2.097   2.779 -0.1453  0.2536  0.1346
 1671SOL    HW2 6687   4.241   2.174   2.723  0.4339  1.3986  1.7612
 1671SOL    HW3 6688   4.298   2.036   2.745  0.0621  0.8599 -0.5776
 1671SOL    MW4 6689   4.242   2.099   2.767 -0.0415  0.4847  0.2553
 1672SOL     OW 6690   4.236   2.327   2.636 -0.3807  0.1747 -0.1692
 1672SOL    HW2 6691   4.155   2.370   2.664 -1.0271 -0.4192 -1.0757
 1672SOL    HW3 6692   4.237   2.339   2.541 -0.5076 -1.6667 -0.4324
 1672SOL    MW4 6693   4.225   2.334   2.627 -0.4827 -0.1466 -0.3235
 1673SOL     OW 6694   4.004   2.436   2.748 -0.1017  0.2036  0.1434
 1673SOL    HW2 6695   4.006   2.425   2.843 -0.3325  1.7292  0.3385
 1673SOL    HW3 6696   3.931   2.381   2.719  2.0037 -2.8658  0.4538
 1673SOL    MW4 6697   3.995   2.427   2.757  0.1456 -0.0001  0.2101
 1674SOL     OW 6698   4.020   2.690   2.659  0.2920  0.1244  0.0039
 1674SOL    HW2 6699   4.109   2.711   2.686 -0.4578  0.7529  2.1224
 1674SOL    HW3 6700   4.010   2.597   2.680  1.0027 -0.4210 -1.9261
 1674SOL    MW4 6701   4.030   2.680   2.665  0.2868  0.1354  0.0288
 1675SOL     OW 6702   4.258   2.814   2.743  0.8001 -0.1102  0.3149
 1675SOL    HW2 6703   4.273   2.829   2.836  0.6234 -0.0048  0.3262
 1675SOL    HW3 6704   4.256   2.901   2.704  1.5641 -0.1831  0.1059
 1675SOL    MW4 6705   4.260   2.827   2.750  0.8776 -0.1059  0.2888
 1676SOL     OW 6706   4.264   3.084   2.641 -0.0120 -0.1756  0.1575
 1676SOL    HW2 6707   4.205   3.143   2.687  0.3026  0.9027 -0.7924
 1676SOL    HW3 6708   4.251   3.103   2.549  0.4471 -1.2630 -0.1487
 1676SOL    MW4 6709   4.255   3.094   2.635  0.0901 -0.1768 -0.0082
 1677SOL     OW 6710   4.050   3.231   2.753 -0.0783 -0.1622 -0.2507
 1677SOL    HW2 6711   4.020   3.313   2.714 -1.2454  0.4662  1.8759
 1677SOL    HW3 6712   3.983   3.167   2.730 -1.4150  0.4883  1.6792
 1677SOL    MW4 6713   4.037   3.233   2.745 -0.4086  0.0065  0.2845
 1678SOL     OW 6714   3.994   3.489   2.636 -1.0263  0.0389 -0.5391
 1678SOL    HW2 6715   4.079   3.531   2.644 -1.6324  1.8660 -3.1182
 1678SOL    HW3 6716   3.991   3.457   2.545 -2.2041 -1.9804  0.1783
 1678SOL    MW4 6717   4.005   3.490   2.625 -1.2616  0.0136 -0.7847
 1679SOL     OW 6718   4.237   3.605   2.710  0.0989  0.2148  0.2626
 1679SOL    HW2 6719   4.230   3.612   2.806  0.1314  0.5384  0.2412
 1679SOL    HW3 6720   4.324   3.568   2.695 -0.3177 -0.8522  0.4001
 1679SOL    MW4 6721   4.248   3.601   2.721  0.0482  0.1167  0.2779
 1680SOL     OW 6722   4.244   3.868   2.588 -0.0915 -0.7914 -0.1128
 1680SOL    HW2 6723   4.250   3.779   2.622 -0.8423 -0.6264  0.4543
 1680SOL    HW3 6724   4.325   3.911   2.617 -0.2710 -0.9434  0.6158
 1680SOL    MW4 6725   4.256   3.862   2.596 -0.2142 -0.7897  0.0582
 1681SOL     OW 6726   4.057   4.017   2.716  0.5877  0.3179  0.1165
 1681SOL    HW2 6727   4.055   3.986   2.807  0.8437 -1.1226 -0.3565
 1681SOL    HW3 6728   4.135   3.976   2.679  0.8181  1.3851 -0.5860
 1681SOL    MW4 6729   4.067   4.007   2.723  0.6519  0.2687 -0.0386
 1682SOL     OW 6730   4.035   4.282   2.656 -0.3500  0.1206  0.0327
 1682SOL    HW2 6731   4.050   4.191   2.681  1.7355  0.2878 -0.5774
 1682SOL    HW3 6732   4.030   4.280   2.560  0.1708  0.7233 -0.0027
 1682SOL    MW4 6733   4.036   4.270   2.647 -0.0062  0.2222 -0.0525
 1683SOL     OW 6734   4.268   4.389   2.748 -0.0695 -0.0833 -0.0884
 1683SOL    HW2 6735   4.188   4.340   2.733 -0.6838  0.4633  1.3058
 1683SOL    HW3 6736   4.251   4.476   2.712 -0.0851  0.0142  0.1493
 1683SOL    MW4 6737   4.255   4.394   2.741 -0.1526  0.0017  0.1269
 1684SOL     OW 6738   0.198   4.613   3.092 -0.5615 -0.1211 -0.4884
 1684SOL    HW2 6739   0.208   4.607   3.187 -1.3872 -0.4948 -0.4189
 1684SOL    HW3 6740   0.118   4.664   3.079 -0.3750  0.0501 -0.9886
 1684SOL    MW4 6741   0.189   4.619   3.103 -0.6459 -0.1478 -0.5453
 1685SOL     OW 6742   4.461   0.087   3.018 -0.0254 -0.0325  0.2254
 1685SOL    HW2 6743   4.374   0.051   3.035  0.0092 -0.5154 -0.6316
 1685SOL    HW3 6744   4.460   0.174   3.059 -0.2756 -0.7909  1.8564
 1685SOL    MW4 6745   4.450   0.094   3.026 -0.0538 -0.1963  0.3275
 1686SOL     OW 6746   4.478   0.357   3.089 -0.4216  0.1922 -0.5269
 1686SOL    HW2 6747   4.478   0.352   3.185  1.5278  0.3354 -0.4964
 1686SOL    HW3 6748   4.393   0.397   3.067 -0.5280  0.9549  1.1777
 1686SOL    MW4 6749   4.467   0.361   3.099 -0.1784  0.3118 -0.2980
 1687SOL     OW 6750   0.211   0.495   2.985  0.0048 -0.2822  0.2070
 1687SOL    HW2 6751   0.286   0.442   3.009 -0.9177 -1.6816  0.0696
 1687SOL    HW3 6752   0.135   0.447   3.020 -0.9794  0.0548 -1.4068
 1687SOL    MW4 6753   0.211   0.482   2.993 -0.2468 -0.4224 -0.0241
 1688SOL     OW 6754   0.209   0.751   3.078  0.1189 -0.3055 -0.1521
 1688SOL    HW2 6755   0.207   0.736   3.172  1.1577 -1.3841 -0.2936
 1688SOL    HW3 6756   0.205   0.663   3.040  0.4530  0.0857 -1.0968
 1688SOL    MW4 6757   0.208   0.737   3.085  0.3001 -0.3962 -0.2954
 1689SOL     OW 6758   4.463   0.849   3.005  0.1841 -0.0989 -0.1822
 1689SOL    HW2 6759   4.547   0.804   3.013  0.2206 -0.2779 -1.6078
 1689SOL    HW3 6760   4.447   0.855   2.911 -1.3715 -0.0148  0.0759
 1689SOL    MW4 6761   4.472   0.844   2.994 -0.0164 -0.1114 -0.3363
 1690SOL     OW 6762   4.452   1.157   3.094 -0.1834  0.5267 -0.7084
 1690SOL    HW2 6763   4.378   1.209   3.065  0.0793  1.3514  0.0486
 1690SOL    HW3 6764   4.438   1.070   3.056 -0.9794  0.9676 -1.4288
 1690SOL    MW4 6765   4.441   1.152   3.085 -0.2538  0.6937 -0.7035
 1691SOL     OW 6766   0.206   1.249   3.001  0.2754  0.1883  0.0305
 1691SOL    HW2 6767   0.122   1.208   3.022  0.0192  1.0289  0.6348
 1691SOL    HW3 6768   0.208   1.250   2.905 -1.2497  1.8806  0.0011
 1691SOL    MW4 6769   0.195   1.244   2.991  0.0404  0.5225  0.1064
 1692SOL     OW 6770   0.179   1.511   3.081  0.5336  0.4628  0.2164
 1692SOL    HW2 6771   0.093   1.548   3.063 -0.4998 -0.6531  2.6028
 1692SOL    HW3 6772   0.174   1.421   3.048 -0.3112 -0.5873  3.0675
 1692SOL    MW4 6773   0.167   1.504   3.074  0.2858  0.1771  0.9074
 1693SOL     OW 6774   4.434   1.660   3.014 -0.1494  0.0659  0.0679
 1693SOL    HW2 6775   4.371   1.607   3.063  0.3840 -0.8308 -0.1935
 1693SOL    HW3 6776   4.419   1.750   3.044 -0.3086 -0.3738  1.3543
 1693SOL    MW4 6777   4.424   1.665   3.024 -0.1000 -0.1104  0.2031
 1694SOL     OW 6778   4.465   1.908   3.133 -0.0166  0.0066  0.3234
 1694SOL    HW2 6779   4.395   1.957   3.091 -0.1486  0.7999  1.4449
 1694SOL    HW3 6780   4.546   1.945   3.097 -0.1404  0.1152  0.1579
 1694SOL    MW4 6781   4.466   1.919   3.123 -0.0503  0.1256  0.4495
 1695SOL     OW 6782   0.198   2.043   2.997  0.0363  0.0828  0.2324
 1695SOL    HW2 6783   0.183   2.135   3.017 -0.0533  0.1102  0.0471
 1695SOL    HW3 6784   0.216   2.042   2.903  0.8885  0.0102  0.3978
 1695SOL    MW4 6785   0.198   2.055   2.987  0.1370  0.0768  0.2298
 1696SOL     OW 6786   0.219   2.302   3.112 -0.1462 -0.5434 -0.4936
 1696SOL    HW2 6787   0.223   2.296   3.208  0.6978  0.4198 -0.4567
 1696SOL    HW3 6788   0.304   2.338   3.087  0.0020 -1.6914 -1.6830
 1696SOL    MW4 6789   0.231   2.306   3.122 -0.0153 -0.5678 -0.6457
 1697SOL     OW 6790   4.461   2.436   3.066  0.5836 -0.1354  0.3283
 1697SOL    HW2 6791   4.499   2.520   3.091 -0.4123 -0.2317  2.2137
 1697SOL    HW3 6792   4.533   2.373   3.075  1.0292  0.3255  0.0084
 1697SOL    MW4 6793   4.476   2.439   3.070  0.5110 -0.0873  0.5348
 1698SOL     OW 6794   0.021   2.704   3.145  0.2573 -0.2264  0.4729
 1698SOL    HW2 6795   0.023   2.701   3.241  1.5544  0.1860  0.4750
 1698SOL    HW3 6796   0.102   2.751   3.122  0.6187 -1.4945 -0.8625
 1698SOL    MW4 6797   0.032   2.710   3.155  0.4761 -0.3393  0.2970
 1699SOL     OW 6798   0.252   2.847   3.067 -0.1202 -0.1454  0.2426
 1699SOL    HW2 6799   0.333   2.799   3.084 -0.2747 -0.1736  0.9297
 1699SOL    HW3 6800   0.235   2.833   2.974  0.4731 -0.4336  0.1735
 1699SOL    MW4 6801   0.261   2.839   3.057 -0.0623 -0.1872  0.3241
 1700SOL     OW 6802   0.250   3.111   3.142 -0.4102 -0.2495 -0.0316
 1700SOL    HW2 6803   0.166   3.146   3.113 -0.7110 -0.2962  0.7683
 1700SOL    HW3 6804   0.252   3.021   3.110 -1.0459 -0.5255  0.6938
 1700SOL    MW4 6805   0.240   3.104   3.134 -0.5338 -0.2921  0.1696
 1701SOL     OW 6806   0.016   3.226   3.052 -0.4413  0.5920 -0.3229
 1701SOL    HW2 6807  -0.062   3.179   3.083 -0.6158  0.1608 -1.3846
 1701SOL    HW3 6808   0.010   3.220   2.956  1.0878  0.2520 -0.4050
 1701SOL    MW4 6809   0.005   3.219   3.043 -0.2626  0.4902 -0.4738
 1702SOL     OW 6810   0.005   3.490   3.100 -0.1076  0.0468  0.4596
 1702SOL    HW2 6811  -0.072   3.526   3.057  0.2393  0.4650  0.1866
 1702SOL    HW3 6812  -0.004   3.395   3.089  0.5571  0.1855 -1.5804
 1702SOL    MW4 6813  -0.006   3.482   3.093  0.0259  0.1203  0.1545
 1703SOL     OW 6814   0.225   3.618   2.986 -0.0420  0.2166  0.4441
 1703SOL    HW2 6815   0.227   3.706   3.025 -0.7678  0.6279 -0.4499
 1703SOL    HW3 6816   0.145   3.579   3.020 -0.6239  0.5389 -0.5511
 1703SOL    MW4 6817   0.215   3.625   2.996 -0.2145  0.3134  0.1948
 1704SOL     OW 6818   0.235   3.856   3.112  0.3424  0.0538  0.0385
 1704SOL    HW2 6819   0.243   3.858   3.208  2.3093 -2.2116 -0.0305
 1704SOL    HW3 6820   0.312   3.903   3.081  1.8013 -2.5539 -0.4347
 1704SOL    MW4 6821   0.246   3.862   3.121  0.7944 -0.5892 -0.0330
 1705SOL     OW 6822   4.473   4.001   3.013  0.1482  0.5183  0.3321
 1705SOL    HW2 6823   4.552   3.948   3.010 -0.6201 -0.6434  0.5737
 1705SOL    HW3 6824   4.450   4.016   2.921 -0.5821 -1.0017  0.2559
 1705SOL    MW4 6825   4.480   3.996   3.000 -0.0495  0.1645  0.3539
 1706SOL     OW 6826   4.450   4.248   3.129  0.2193  0.0319  0.7364
 1706SOL    HW2 6827   4.455   4.225   3.221  0.5057  0.4013  0.8143
 1706SOL    HW3 6828   4.460   4.165   3.082  1.2445  0.0004  1.0132
 1706SOL    MW4 6829   4.452   4.234   3.135  0.3924  0.0765  0.7832
 1707SOL     OW 6830   0.203   4.358   3.012 -0.0878 -0.2371 -0.2161
 1707SOL    HW2 6831   0.147   4.307   3.070  0.5486 -0.2551  0.3808
 1707SOL    HW3 6832   0.186   4.449   3.035  1.9320 -0.2996  1.6687
 1707SOL    MW4 6833   0.193   4.363   3.023  0.2626 -0.2478  0.1113
 1708SOL     OW 6834   0.676   4.626   3.089  0.2670 -0.0456 -0.2161
 1708SOL    HW2 6835   0.667   4.531   3.077 -1.1702 -0.0804  0.9696
 1708SOL    HW3 6836   0.587   4.660   3.075  0.7002  1.0858 -0.2579
 1708SOL    MW4 6837   0.663   4.618   3.085  0.1345  0.0991 -0.0652
 1709SOL     OW 6838   0.435   0.083   3.016 -0.0372 -0.2356  0.2071
 1709SOL    HW2 6839   0.417   0.176   3.033 -1.7491 -0.1299 -1.9869
 1709SOL    HW3 6840   0.360   0.037   3.053 -0.5436 -0.5148 -1.1466
 1709SOL    MW4 6841   0.423   0.089   3.024 -0.3299 -0.2585 -0.2610
 1710SOL     OW 6842   0.416   0.351   3.083  0.6019  0.0677  0.1251
 1710SOL    HW2 6843   0.417   0.387   3.171  1.5144 -0.6038  0.4009
 1710SOL    HW3 6844   0.498   0.383   3.043  0.3205  0.1568 -0.3854
 1710SOL    MW4 6845   0.427   0.360   3.089  0.6852 -0.0091  0.0941
 1711SOL     OW 6846   0.637   0.450   2.967 -0.1608 -0.3680 -0.3406
 1711SOL    HW2 6847   0.711   0.412   3.014 -0.6770 -0.3672  0.4848
 1711SOL    HW3 6848   0.631   0.540   3.001 -0.2180 -0.2056 -0.7780
 1711SOL    MW4 6849   0.646   0.457   2.978 -0.2364 -0.3465 -0.2894
 1712SOL     OW 6850   0.634   0.715   3.071  0.1618  0.2549 -0.5690
 1712SOL    HW2 6851   0.613   0.728   3.163  0.4022  0.1812 -0.5028
 1712SOL    HW3 6852   0.569   0.767   3.023 -0.6507 -0.5732 -0.3918
 1712SOL    MW4 6853   0.623   0.723   3.077  0.0863  0.1359 -0.5369
 1713SOL     OW 6854   0.445   0.898   2.997 -0.1939  0.2709 -0.6220
 1713SOL    HW2 6855   0.366   0.849   3.021  0.1624 -0.1107 -0.2322
 1713SOL    HW3 6856   0.444   0.900   2.901 -0.4154 -0.1576 -0.6285
 1713SOL    MW4 6857   0.434   0.892   2.988 -0.1761  0.1640 -0.5714
 1714SOL     OW 6858   0.440   1.150   3.098  0.1752 -0.1600  0.0123
 1714SOL    HW2 6859   0.442   1.059   3.069 -0.7888 -0.8520  2.0095
 1714SOL    HW3 6860   0.353   1.182   3.071  0.0901 -0.1707  0.2699
 1714SOL    MW4 6861   0.429   1.142   3.090  0.0368 -0.2527  0.3098
 1715SOL     OW 6862   0.676   1.232   2.971 -0.1992  0.0011  0.1083
 1715SOL    HW2 6863   0.746   1.177   3.006  0.0601  1.2354  1.5940
 1715SOL    HW3 6864   0.598   1.205   3.019 -0.6029 -0.8141 -0.9767
 1715SOL    MW4 6865   0.675   1.221   2.982 -0.2182  0.0564  0.1612
 1716SOL     OW 6866   0.662   1.491   3.066  0.3010  0.4520  0.2530
 1716SOL    HW2 6867   0.666   1.473   3.160 -0.8217  0.5390  0.3234
 1716SOL    HW3 6868   0.672   1.406   3.024  0.1855  0.3402  0.4577
 1716SOL    MW4 6869   0.664   1.478   3.073  0.1376  0.4487  0.2893
 1717SOL     OW 6870   0.434   1.661   3.030 -0.1029 -0.2390 -0.5801
 1717SOL    HW2 6871   0.506   1.601   3.051  0.0813  0.7028  1.6861
 1717SOL    HW3 6872   0.355   1.607   3.037 -0.0405  0.0057  2.6691
 1717SOL    MW4 6873   0.433   1.646   3.034 -0.0704 -0.0825  0.1476
 1718SOL     OW 6874   0.436   1.935   3.122 -0.5132  0.1857  0.8245
 1718SOL    HW2 6875   0.420   1.844   3.096  0.5499 -0.1247  1.2066
 1718SOL    HW3 6876   0.363   1.984   3.084 -1.4791 -0.9264  1.2203
 1718SOL    MW4 6877   0.425   1.929   3.113 -0.5004 -0.0020  0.9271
 1719SOL     OW 6878   0.685   2.037   3.006  0.1273  0.2444  0.0936
 1719SOL    HW2 6879   0.765   1.995   3.039  0.7256  0.1687 -1.4201
 1719SOL    HW3 6880   0.615   1.998   3.058  0.9641 -0.5096  0.6760
 1719SOL    MW4 6881   0.686   2.026   3.017  0.3166  0.1349 -0.0293
 1720SOL     OW 6882   0.663   2.299   3.112 -0.0298 -0.2390  0.2559
 1720SOL    HW2 6883   0.675   2.285   3.206  2.1882 -1.0213 -0.1141
 1720SOL    HW3 6884   0.663   2.211   3.074 -2.3887  0.0028 -0.3261
 1720SOL    MW4 6885   0.665   2.286   3.120 -0.0484 -0.3103  0.1303
 1721SOL     OW 6886   0.458   2.437   3.016  0.5251  0.0791  0.1674
 1721SOL    HW2 6887   0.535   2.387   3.045  0.0394 -0.5549  0.3734
 1721SOL    HW3 6888   0.455   2.425   2.921 -0.0888 -0.9977  0.3217
 1721SOL    MW4 6889   0.468   2.429   3.007  0.3800 -0.1466  0.2149
 1722SOL     OW 6890   0.485   2.695   3.124  0.0223  0.0343 -0.1188
 1722SOL    HW2 6891   0.557   2.746   3.086  0.1370 -0.6136 -0.7657
 1722SOL    HW3 6892   0.496   2.607   3.089 -0.3423 -0.3803  0.7811
 1722SOL    MW4 6893   0.496   2.690   3.115 -0.0107 -0.1059 -0.0854
 1723SOL     OW 6894   0.733   2.833   2.973 -0.3946 -0.0159  0.4804
 1723SOL    HW2 6895   0.803   2.783   3.015  0.3963  0.9040  0.2867
 1723SOL    HW3 6896   0.737   2.919   3.016 -1.3730  0.0521  0.4337
 1723SOL    MW4 6897   0.743   2.838   2.984 -0.4193  0.1144  0.4487
 1724SOL     OW 6898   0.694   3.087   3.080  0.6126  0.4371  0.7956
 1724SOL    HW2 6899   0.691   3.087   3.176 -0.2619  0.9930  0.7755
 1724SOL    HW3 6900   0.608   3.121   3.054  0.2091 -1.3236 -0.2041
 1724SOL    MW4 6901   0.682   3.092   3.089  0.4440  0.2781  0.6611
 1725SOL     OW 6902   0.457   3.242   3.015  0.0696 -0.0073  0.2866
 1725SOL    HW2 6903   0.472   3.331   3.048 -0.7425  0.4449 -0.5361
 1725SOL    HW3 6904   0.379   3.213   3.062  0.1856 -0.1982  0.3632
 1725SOL    MW4 6905   0.449   3.250   3.026 -0.0223  0.0272  0.1882
 1726SOL     OW 6906   0.480   3.506   3.080  0.1314  0.2037  0.0306
 1726SOL    HW2 6907   0.482   3.509   3.176 -0.5364 -0.6254  0.0797
 1726SOL    HW3 6908   0.392   3.538   3.057  0.0401 -0.2564 -0.2685
 1726SOL    MW4 6909   0.469   3.511   3.090  0.0312  0.0336 -0.0024
 1727SOL     OW 6910   0.704   3.623   2.993 -0.3362  0.6191  0.0335
 1727SOL    HW2 6911   0.780   3.574   3.024 -0.5312 -0.0777 -0.5644
 1727SOL    HW3 6912   0.629   3.567   3.016 -0.5399  0.4939 -0.9126
 1727SOL    MW4 6913   0.704   3.609   3.000 -0.3888  0.5106 -0.1702
 1728SOL     OW 6914   0.672   3.874   3.116 -0.1355  0.5556  0.1511
 1728SOL    HW2 6915   0.683   3.861   3.210  0.8612  0.4687  0.0209
 1728SOL    HW3 6916   0.676   3.786   3.079  0.2920  0.6627 -0.0592
 1728SOL    MW4 6917   0.674   3.861   3.124  0.0524  0.5583  0.1062
 1729SOL     OW 6918   0.464   4.019   2.997 -0.3159  0.2851  0.1244
 1729SOL    HW2 6919   0.533   3.971   3.043 -1.5362 -1.5678  0.1003
 1729SOL    HW3 6920   0.460   3.976   2.911 -2.5149 -0.6212  0.6713
 1729SOL    MW4 6921   0.473   4.007   2.992 -0.7670 -0.0789  0.1933
 1730SOL     OW 6922   0.450   4.264   3.126  0.7442 -0.1358 -0.4757
 1730SOL    HW2 6923   0.454   4.181   3.079  0.2670 -0.9583  0.8994
 1730SOL    HW3 6924   0.372   4.307   3.091  0.0113 -1.0398  0.0258
 1730SOL    MW4 6925   0.440   4.259   3.115  0.5845 -0.3636 -0.2281
 1731SOL     OW 6926   0.675   4.357   3.018  0.3738  0.4210 -0.6805
 1731SOL    HW2 6927   0.602   4.312   3.060  0.2826  0.2040 -1.0718
 1731SOL    HW3 6928   0.657   4.351   2.924  0.7834  0.5521 -0.7700
 1731SOL    MW4 6929   0.663   4.351   3.011  0.4158  0.4097 -0.7440
 1732SOL     OW 6930   1.051   4.653   3.099 -0.1872  0.2495 -0.1590
 1732SOL    HW2 6931   1.127   4.710   3.086 -0.3176  0.6478  0.7978
 1732SOL    HW3 6932   0.980   4.698   3.055 -0.3182  0.8964  0.7040
 1732SOL    MW4 6933   1.052   4.666   3.091 -0.2217  0.3874  0.0811
 1733SOL     OW 6934   0.856   0.098   2.950 -0.1648 -0.8261  0.1227
 1733SOL    HW2 6935   0.846   0.183   2.992  0.0749 -0.0907 -1.2972
 1733SOL    HW3 6936   0.793   0.041   2.995 -0.2583  0.0575  1.1353
 1733SOL    MW4 6937   0.847   0.102   2.962 -0.1455 -0.6125  0.0690
 1734SOL     OW 6938   0.854   0.332   3.084  0.3098  0.0493  0.4825
 1734SOL    HW2 6939   0.870   0.342   3.178 -1.6529  0.9152  0.7565
 1734SOL    HW3 6940   0.907   0.401   3.044  0.9950 -0.1885  0.9643
 1734SOL    MW4 6941   0.863   0.342   3.091  0.1412  0.1321  0.5822
 1735SOL     OW 6942   1.055   0.511   3.010  0.2597  0.2623  0.3532
 1735SOL    HW2 6943   1.136   0.473   3.044  0.7342  0.8999 -0.0505
 1735SOL    HW3 6944   1.066   0.511   2.915  0.7650  2.4579  0.3865
 1735SOL    MW4 6945   1.067   0.506   3.002  0.3890  0.6361  0.3044
 1736SOL     OW 6946   1.127   0.769   3.060  0.2739 -0.2021  0.0621
 1736SOL    HW2 6947   1.121   0.775   3.155 -0.2505 -0.5355  0.0531
 1736SOL    HW3 6948   1.113   0.676   3.041  0.7035 -0.1890 -0.3144
 1736SOL    MW4 6949   1.124   0.758   3.070  0.2614 -0.2443  0.0112
 1737SOL     OW 6950   0.865   0.829   2.964 -0.0690 -0.4835  0.4758
 1737SOL    HW2 6951   0.942   0.795   3.008  0.2947 -0.0035  0.2176
 1737SOL    HW3 6952   0.792   0.782   3.003  0.2583 -0.1419  1.5032
 1737SOL    MW4 6953   0.866   0.818   2.975  0.0222 -0.3751  0.5773
 1738SOL     OW 6954   0.897   1.099   3.097  0.1938 -0.1429 -0.1441
 1738SOL    HW2 6955   0.969   1.137   3.047  0.8309 -0.1617  0.7437
 1738SOL    HW3 6956   0.881   1.014   3.055  1.4650 -0.6399  0.3670
 1738SOL    MW4 6957   0.904   1.093   3.085  0.4456 -0.2110  0.0405
 1739SOL     OW 6958   1.086   1.267   3.008  0.2209  0.0778  0.0014
 1739SOL    HW2 6959   1.155   1.207   3.037  0.6273  0.6603  0.2729
 1739SOL    HW3 6960   1.102   1.279   2.915 -0.1050 -0.5461 -0.1365
 1739SOL    MW4 6961   1.098   1.261   3.000  0.2315  0.0723  0.0190
 1740SOL     OW 6962   1.113   1.542   3.112 -0.2331 -0.0482  0.1468
 1740SOL    HW2 6963   1.195   1.575   3.076  0.8892 -1.2172  1.5582
 1740SOL    HW3 6964   1.110   1.450   3.084 -1.7501  0.3301 -1.0366
 1740SOL    MW4 6965   1.124   1.534   3.103 -0.2852 -0.1525  0.1768
 1741SOL     OW 6966   0.874   1.662   3.015 -0.2294 -0.0947  0.1129
 1741SOL    HW2 6967   0.954   1.622   3.050  0.2469  1.4709  0.8702
 1741SOL    HW3 6968   0.804   1.603   3.042  0.3899 -0.1048  1.7581
 1741SOL    MW4 6969   0.875   1.649   3.023 -0.0849  0.1105  0.4299
 1742SOL     OW 6970   0.925   1.920   3.112  0.1266 -0.2939 -0.2875
 1742SOL    HW2 6971   0.914   1.902   3.206  1.1695  1.1410  0.1286
 1742SOL    HW3 6972   0.914   1.835   3.070  0.0196 -1.0260  1.1708
 1742SOL    MW4 6973   0.922   1.907   3.119  0.2501 -0.2012 -0.0402
 1743SOL     OW 6974   1.156   2.064   3.038 -0.4974  0.0198  0.4164
 1743SOL    HW2 6975   1.075   2.021   3.065 -0.1638 -1.2342 -0.5579
 1743SOL    HW3 6976   1.153   2.063   2.942 -0.2580  1.7454  0.3700
 1743SOL    MW4 6977   1.145   2.059   3.029 -0.4218  0.0820  0.2817
 1744SOL     OW 6978   1.177   2.321   3.113  0.4179  0.3314 -0.3885
 1744SOL    HW2 6979   1.093   2.360   3.089  0.1354  0.6947  1.1340
 1744SOL    HW3 6980   1.164   2.227   3.102  0.0723  0.4322 -0.9023
 1744SOL    MW4 6981   1.164   2.314   3.108  0.3351  0.3926 -0.2554
 1745SOL     OW 6982   0.926   2.405   3.042 -0.0746 -0.0052  0.1600
 1745SOL    HW2 6983   0.846   2.362   3.073  0.0383  0.2851  0.8768
 1745SOL    HW3 6984   0.916   2.409   2.947 -1.7534  1.6803  0.3813
 1745SOL    MW4 6985   0.914   2.400   3.034 -0.2812  0.2554  0.2838
 1746SOL     OW 6986   0.934   2.676   3.088  0.3856 -0.4592  0.1689
 1746SOL    HW2 6987   0.930   2.678   3.184  0.6786 -0.6200  0.1845
 1746SOL    HW3 6988   0.929   2.584   3.066  0.3285 -0.4220  0.0264
 1746SOL    MW4 6989   0.933   2.664   3.098  0.4167 -0.4755  0.1521
 1747SOL     OW 6990   1.145   2.838   2.990 -0.0193 -0.4613 -0.5396
 1747SOL    HW2 6991   1.137   2.923   3.032  0.2018 -0.5500 -0.3203
 1747SOL    HW3 6992   1.078   2.784   3.032  1.4053 -1.0777  0.9928
 1747SOL    MW4 6993   1.135   2.842   3.001  0.1978 -0.5543 -0.3085
 1748SOL     OW 6994   1.127   3.095   3.108  0.0866  0.3042  0.0427
 1748SOL    HW2 6995   1.205   3.141   3.076 -0.3569 -0.5688 -2.4045
 1748SOL    HW3 6996   1.053   3.145   3.073 -0.4090 -0.9419 -0.7235
 1748SOL    MW4 6997   1.128   3.108   3.099 -0.0373  0.0246 -0.3813
 1749SOL     OW 6998   0.919   3.242   3.008 -0.0774  0.1605  0.3379
 1749SOL    HW2 6999   0.835   3.205   3.035 -0.3875  1.5198  1.2824
 1749SOL    HW3 7000   0.919   3.235   2.912 -0.2433 -1.9877  0.4739
 1749SOL    MW4 7001   0.908   3.236   2.999 -0.1402  0.0564  0.4805
 1750SOL     OW 7002   0.925   3.495   3.091 -0.0461 -0.0946  0.0559
 1750SOL    HW2 7003   0.991   3.542   3.040 -0.0714  0.4393  0.5016
 1750SOL    HW3 7004   0.917   3.410   3.048  0.0677  0.2746 -0.7143
 1750SOL    MW4 7005   0.933   3.490   3.078 -0.0345  0.0246  0.0131
 1751SOL     OW 7006   1.124   3.642   2.971 -0.1358 -0.4075  0.1943
 1751SOL    HW2 7007   1.192   3.585   3.006  1.2892  0.7351 -0.6486
 1751SOL    HW3 7008   1.120   3.715   3.033 -2.2903 -1.6150  1.5307
 1751SOL    MW4 7009   1.133   3.644   2.984 -0.2321 -0.4160  0.2594
 1752SOL     OW 7010   1.138   3.874   3.109 -0.2708 -0.4529 -0.0775
 1752SOL    HW2 7011   1.141   3.871   3.205  1.9690  0.9719 -0.0520
 1752SOL    HW3 7012   1.051   3.909   3.088 -0.7559 -0.7322  1.4288
 1752SOL    MW4 7013   1.127   3.878   3.119 -0.0393 -0.3017  0.1246
 1753SOL     OW 7014   0.899   4.000   3.032  0.3777 -0.3019  0.2259
 1753SOL    HW2 7015   0.816   3.960   3.058  0.3157 -0.5183 -0.2909
 1753SOL    HW3 7016   0.907   3.979   2.939  0.2120  1.1211 -0.1108
 1753SOL    MW4 7017   0.889   3.992   3.023  0.3477 -0.1427  0.1133
 1754SOL     OW 7018   0.890   4.261   3.139  0.2158  0.2573  0.3419
 1754SOL    HW2 7019   0.903   4.172   3.105 -0.5247 -0.0185  0.7541
 1754SOL    HW3 7020   0.816   4.295   3.089 -0.7102 -0.0558  1.4691
 1754SOL    MW4 7021   0.882   4.253   3.128 -0.0041  0.1796  0.5450
 1755SOL     OW 7022   1.117   4.379   3.026 -0.1244  0.4835  0.1225
 1755SOL    HW2 7023   1.061   4.326   3.083 -0.7903  1.0304 -0.0084
 1755SOL    HW3 7024   1.101   4.469   3.055  1.4582  0.5738  0.7479
 1755SOL    MW4 7025   1.108   4.384   3.037 -0.0034  0.5676  0.1878
 1756SOL     OW 7026   1.534   4.645   3.111 -0.2555 -0.1021 -0.2770
 1756SOL    HW2 7027   1.558   4.663   3.202  2.0498  1.3403 -1.1417
 1756SOL    HW3 7028   1.452   4.692   3.098 -0.0134  0.6012  0.7227
 1756SOL    MW4 7029   1.526   4.653   3.121  0.0806  0.1810 -0.2592
 1757SOL     OW 7030   1.293   0.125   3.024  0.0252  0.2655  0.3310
 1757SOL    HW2 7031   1.304   0.216   3.053 -0.8218  0.5188 -0.1123
 1757SOL    HW3 7032   1.304   0.129   2.929  0.4663 -0.1809  0.3616
 1757SOL    MW4 7033   1.296   0.138   3.015 -0.0284  0.2400  0.2765
 1758SOL     OW 7034   1.308   0.402   3.099  0.0118  0.1593 -0.0195
 1758SOL    HW2 7035   1.301   0.402   3.195 -0.7288  1.8400 -0.0516
 1758SOL    HW3 7036   1.400   0.422   3.082  0.1433 -0.1257  0.3481
 1758SOL    MW4 7037   1.319   0.405   3.109 -0.0685  0.3435  0.0248
 1759SOL     OW 7038   1.569   0.474   3.030 -0.0088  0.6220  0.0656
 1759SOL    HW2 7039   1.584   0.566   3.051 -1.1871  0.5331  1.4125
 1759SOL    HW3 7040   1.570   0.470   2.934 -0.6699  2.1590 -0.0158
 1759SOL    MW4 7041   1.571   0.486   3.020 -0.2515  0.8130  0.2326
 1760SOL     OW 7042   1.569   0.760   3.082  0.3674  0.2743  0.0268
 1760SOL    HW2 7043   1.554   0.779   3.174 -1.5998 -0.2882 -0.1539
 1760SOL    HW3 7044   1.497   0.803   3.036  0.5604 -0.5820 -1.1115
 1760SOL    MW4 7045   1.558   0.768   3.088  0.1334  0.0871 -0.1472
 1761SOL     OW 7046   1.359   0.905   2.980  0.3106 -0.2343  0.4115
 1761SOL    HW2 7047   1.337   0.988   3.023  1.4463 -0.2641  1.0763
 1761SOL    HW3 7048   1.291   0.844   3.009  0.6788 -0.0796  1.6330
 1761SOL    MW4 7049   1.347   0.908   2.989  0.5090 -0.2178  0.6604
 1762SOL     OW 7050   1.305   1.142   3.099 -0.1377 -0.1056  0.0390
 1762SOL    HW2 7051   1.311   1.155   3.194 -0.1821  0.5149 -0.0380
 1762SOL    HW3 7052   1.387   1.176   3.064 -0.9656  1.5663 -0.3265
 1762SOL    MW4 7053   1.316   1.148   3.107 -0.2528  0.1968 -0.0194
 1763SOL     OW 7054   1.531   1.247   3.005 -0.2030  0.2503  0.1344
 1763SOL    HW2 7055   1.603   1.207   3.054 -1.4179 -0.9658  0.9513
 1763SOL    HW3 7056   1.534   1.340   3.030  0.2795 -0.0327  1.1525
 1763SOL    MW4 7057   1.541   1.254   3.015 -0.2996  0.0525  0.3765
 1764SOL     OW 7058   1.543   1.520   3.091 -0.6497  0.1976 -0.1344
 1764SOL    HW2 7059   1.617   1.576   3.070 -0.1545 -0.5800 -0.4700
 1764SOL    HW3 7060   1.467   1.565   3.051 -0.4559  1.2694  0.6804
 1764SOL    MW4 7061   1.542   1.534   3.083 -0.5588  0.2364 -0.0712
 1765SOL     OW 7062   1.326   1.677   2.976  0.2482  0.0984 -0.0611
 1765SOL    HW2 7063   1.336   1.759   3.024 -2.3835  0.7038 -0.4495
 1765SOL    HW3 7064   1.306   1.703   2.887 -0.9902 -0.9354 -0.1056
 1765SOL    MW4 7065   1.324   1.691   2.971 -0.2624  0.0418 -0.1182
 1766SOL     OW 7066   1.353   1.904   3.115 -0.2972 -0.2486 -0.2267
 1766SOL    HW2 7067   1.357   1.930   3.207 -0.2231 -0.3444 -0.2031
 1766SOL    HW3 7068   1.278   1.952   3.080 -0.4228 -0.3337 -0.0770
 1766SOL    MW4 7069   1.344   1.913   3.123 -0.3040 -0.2725 -0.2038
 1767SOL     OW 7070   1.568   2.063   3.029 -0.1815 -0.0147 -0.5631
 1767SOL    HW2 7071   1.493   2.006   3.050 -0.6591  0.6150 -0.5451
 1767SOL    HW3 7072   1.562   2.074   2.934 -0.4466  0.4964 -0.4890
 1767SOL    MW4 7073   1.557   2.057   3.019 -0.2795  0.1358 -0.5509
 1768SOL     OW 7074   1.632   2.324   3.064  0.1317  0.1461 -0.0374
 1768SOL    HW2 7075   1.554   2.377   3.048  0.1497 -0.5256 -2.4357
 1768SOL    HW3 7076   1.600   2.234   3.056  0.6712 -0.1774  1.3395
 1768SOL    MW4 7077   1.617   2.319   3.061  0.2053  0.0148 -0.1722
 1769SOL     OW 7078   1.407   2.472   3.005  0.4008  0.0279 -0.1625
 1769SOL    HW2 7079   1.345   2.407   3.040 -0.2589  0.4851 -0.4641
 1769SOL    HW3 7080   1.389   2.473   2.911  2.7637 -1.8239 -0.6685
 1769SOL    MW4 7081   1.396   2.464   2.997  0.6255 -0.1561 -0.2690
 1770SOL     OW 7082   1.359   2.714   3.124 -0.1614 -0.1530  0.3256
 1770SOL    HW2 7083   1.376   2.627   3.087  0.1548 -0.4131  1.0704
 1770SOL    HW3 7084   1.278   2.743   3.081 -0.8672 -1.2784  0.8676
 1770SOL    MW4 7085   1.350   2.706   3.114 -0.2128 -0.3358  0.4954
 1771SOL     OW 7086   1.543   2.873   2.996  0.0411  0.2735  0.2641
 1771SOL    HW2 7087   1.629   2.842   3.024  0.0053  0.5414  0.6695
 1771SOL    HW3 7088   1.481   2.822   3.047 -0.1209 -1.8729 -1.9794
 1771SOL    MW4 7089   1.547   2.862   3.006  0.0150  0.0257  0.0216
 1772SOL     OW 7090   1.562   3.119   3.114  0.0761 -0.1441 -0.2806
 1772SOL    HW2 7091   1.570   3.102   3.208 -0.7158 -0.3002 -0.2366
 1772SOL    HW3 7092   1.555   3.033   3.074 -0.4529 -0.0475 -0.3976
 1772SOL    MW4 7093   1.562   3.106   3.121 -0.0982 -0.1519 -0.2902
 1773SOL     OW 7094   1.348   3.225   2.986  0.6994  1.0000  0.1695
 1773SOL    HW2 7095   1.425   3.179   3.020 -0.8135 -1.3452  0.5679
 1773SOL    HW3 7096   1.357   3.220   2.891  0.8374  0.3587  0.2135
 1773SOL    MW4 7097   1.359   3.218   2.978  0.5180  0.6060  0.2279
 1774SOL     OW 7098   1.323   3.479   3.112  0.3043 -0.3209  0.4898
 1774SOL    HW2 7099   1.327   3.465   3.206  0.0020 -2.0711  0.2595
 1774SOL    HW3 7100   1.338   3.392   3.074  0.2930  0.3380 -1.0704
 1774SOL    MW4 7101   1.325   3.466   3.119  0.2629 -0.4649  0.2536
 1775SOL     OW 7102   1.547   3.621   3.037  0.3047 -0.2229 -0.4030
 1775SOL    HW2 7103   1.466   3.574   3.058  0.6292 -0.4569  0.3445
 1775SOL    HW3 7104   1.560   3.604   2.944 -0.1055 -0.8178 -0.3601
 1775SOL    MW4 7105   1.538   3.612   3.028  0.2934 -0.3323 -0.2987
 1776SOL     OW 7106   1.575   3.873   3.116  0.5976 -0.1396  0.0188
 1776SOL    HW2 7107   1.656   3.903   3.075 -0.9817  1.6590 -1.9313
 1776SOL    HW3 7108   1.566   3.782   3.088  1.4175 -0.0237 -0.6382
 1776SOL    MW4 7109   1.584   3.865   3.107  0.4974  0.1130 -0.3252
 1777SOL     OW 7110   1.367   3.989   2.987 -0.0127 -0.0978  0.6942
 1777SOL    HW2 7111   1.439   3.945   3.032 -0.6362 -0.2533  1.5613
 1777SOL    HW3 7112   1.288   3.954   3.029 -0.5888  0.0757 -0.2353
 1777SOL    MW4 7113   1.366   3.978   2.999 -0.1710 -0.0954  0.6860
 1778SOL     OW 7114   1.357   4.261   3.071  0.0184 -0.1196 -0.4547
 1778SOL    HW2 7115   1.354   4.172   3.034 -2.3528 -0.9975  1.7108
 1778SOL    HW3 7116   1.274   4.300   3.046  0.9028  1.3990 -1.0715
 1778SOL    MW4 7117   1.346   4.254   3.063 -0.1778 -0.0350 -0.2503
 1779SOL     OW 7118   1.572   4.403   2.979  0.0059  0.2091 -0.1645
 1779SOL    HW2 7119   1.502   4.346   3.013 -0.0419  0.2634 -0.1725
 1779SOL    HW3 7120   1.554   4.489   3.016  0.3362  0.1181  0.2030
 1779SOL    MW4 7121   1.560   4.407   2.988  0.0431  0.2043 -0.1171
 1780SOL     OW 7122   2.012   4.649   3.128 -0.0147  0.2443  0.0464
 1780SOL    HW2 7123   1.993   4.637   3.221 -0.6337 -1.3015 -0.2614
 1780SOL    HW3 7124   1.931   4.685   3.091  0.9223  2.8379  0.4681
 1780SOL    MW4 7125   1.999   4.652   3.135  0.0273  0.3825  0.0614
 1781SOL     OW 7126   1.783   0.071   3.019 -0.5111 -0.0622  0.3463
 1781SOL    HW2 7127   1.693   0.046   3.037 -0.9015  1.0613  0.0059
 1781SOL    HW3 7128   1.789   0.072   2.923 -0.2374  0.2030  0.3647
 1781SOL    MW4 7129   1.772   0.068   3.009 -0.5265  0.1210  0.3038
 1782SOL     OW 7130   1.784   0.330   3.153  0.7418  0.1940 -0.4544
 1782SOL    HW2 7131   1.810   0.248   3.112  1.3456  0.4529 -0.5888
 1782SOL    HW3 7132   1.708   0.359   3.102  0.5644 -0.2513 -0.4422
 1782SOL    MW4 7133   1.777   0.323   3.141  0.7981  0.1694 -0.4705
 1783SOL     OW 7134   1.995   0.478   3.035  0.2650  0.2825  0.1048
 1783SOL    HW2 7135   1.926   0.430   3.080  1.9168 -0.1827  2.2502
 1783SOL    HW3 7136   1.977   0.467   2.942 -0.6605 -2.6037  0.6045
 1783SOL    MW4 7137   1.984   0.470   3.029  0.3608 -0.1597  0.4538
 1784SOL     OW 7138   2.026   0.736   3.112 -0.4298 -0.1188  0.4443
 1784SOL    HW2 7139   1.945   0.782   3.090  0.2262 -0.0083 -1.8976
 1784SOL    HW3 7140   2.015   0.648   3.075 -0.0522 -0.5751  1.3837
 1784SOL    MW4 7141   2.014   0.730   3.104 -0.2934 -0.1644  0.2592
 1785SOL     OW 7142   1.808   0.883   3.020 -0.1894 -0.1470  0.0655
 1785SOL    HW2 7143   1.721   0.853   3.043 -0.0531 -1.0846 -0.6236
 1785SOL    HW3 7144   1.812   0.876   2.925  0.2882  0.8467  0.0049
 1785SOL    MW4 7145   1.797   0.878   3.011 -0.1084 -0.1396 -0.0334
 1786SOL     OW 7146   1.767   1.133   3.153 -0.0911 -0.1850  0.1077
 1786SOL    HW2 7147   1.762   1.113   3.247 -0.1386  0.7200  0.2971
 1786SOL    HW3 7148   1.766   1.047   3.111 -0.2895 -0.5913  0.9246
 1786SOL    MW4 7149   1.766   1.119   3.160 -0.1236 -0.1192  0.2404
 1787SOL     OW 7150   2.004   1.288   3.078  0.0960  1.0440  0.4065
 1787SOL    HW2 7151   2.089   1.243   3.082  0.2675  1.1849 -1.3976
 1787SOL    HW3 7152   1.943   1.229   3.122  0.7787  0.1344  0.1404
 1787SOL    MW4 7153   2.007   1.274   3.084  0.2087  0.9426  0.1333
 1788SOL     OW 7154   2.010   1.571   3.132  0.4079  0.0046  0.1624
 1788SOL    HW2 7155   2.001   1.573   3.228 -1.2656  0.8680 -0.0091
 1788SOL    HW3 7156   2.009   1.477   3.111  0.6066 -0.1878  0.9691
 1788SOL    MW4 7157   2.009   1.559   3.142  0.2133  0.0931  0.2462
 1789SOL     OW 7158   1.751   1.683   3.035  0.1628 -0.4095  0.3910
 1789SOL    HW2 7159   1.750   1.769   3.076  0.2575  0.4799 -1.4126
 1789SOL    HW3 7160   1.836   1.646   3.058  1.7807  1.6260 -2.0865
 1789SOL    MW4 7161   1.762   1.689   3.044  0.3888 -0.0236 -0.1739
 1790SOL     OW 7162   1.777   1.936   3.136  0.0386  0.1328  0.0471
 1790SOL    HW2 7163   1.857   1.971   3.095  0.3188  0.2205  0.6557
 1790SOL    HW3 7164   1.707   1.993   3.104  0.2136  0.0236 -0.5319
 1790SOL    MW4 7165   1.778   1.948   3.127  0.0987  0.1300  0.0510
 1791SOL     OW 7166   1.989   2.078   2.984 -0.5214  0.0459 -0.2509
 1791SOL    HW2 7167   2.066   2.033   3.019 -0.7076 -1.3326 -1.5818
 1791SOL    HW3 7168   1.994   2.166   3.022  1.9367  0.1100 -0.6093
 1791SOL    MW4 7169   2.000   2.084   2.994 -0.2216 -0.1275 -0.4738
 1792SOL     OW 7170   2.039   2.331   3.093 -0.3548  0.3483  0.6026
 1792SOL    HW2 7171   2.116   2.360   3.046  0.2408 -0.4850  1.0480
 1792SOL    HW3 7172   1.971   2.394   3.071  0.6877  1.5879  0.9089
 1792SOL    MW4 7173   2.040   2.343   3.084 -0.1387  0.4019  0.7018
 1793SOL     OW 7174   1.843   2.481   2.984  0.0716  0.5168  0.1592
 1793SOL    HW2 7175   1.829   2.570   3.016 -0.4059  0.6058 -0.2993
 1793SOL    HW3 7176   1.767   2.431   3.015  1.2148 -0.1759  1.9937
 1793SOL    MW4 7177   1.831   2.486   2.993  0.1594  0.4372  0.3407
 1794SOL     OW 7178   1.772   2.746   3.082  0.1019  0.0488 -0.0827
 1794SOL    HW2 7179   1.774   2.719   3.174 -0.3047  0.5663  0.0845
 1794SOL    HW3 7180   1.863   2.767   3.062  0.5176 -1.9904 -0.3922
 1794SOL    MW4 7181   1.784   2.745   3.092  0.1031 -0.1520 -0.1014
 1795SOL     OW 7182   2.022   2.853   3.014  0.5670 -0.0629 -0.2966
 1795SOL    HW2 7183   2.014   2.944   3.043  0.4461 -0.4417  0.8974
 1795SOL    HW3 7184   2.021   2.857   2.919  1.2449  1.2501 -0.2551
 1795SOL    MW4 7185   2.021   2.865   3.005  0.6405  0.0603 -0.1336
 1796SOL     OW 7186   1.995   3.104   3.115  0.0217 -0.3590 -0.2644
 1796SOL    HW2 7187   2.004   3.093   3.210 -0.1217 -1.0633 -0.3326
 1796SOL    HW3 7188   1.923   3.166   3.105  0.7473  0.5762  0.1136
 1796SOL    MW4 7189   1.987   3.111   3.127  0.0985 -0.3285 -0.2235
 1797SOL     OW 7190   1.795   3.283   3.043  0.4492 -0.0119 -0.5920
 1797SOL    HW2 7191   1.717   3.235   3.069  1.4562 -1.2180  0.2528
 1797SOL    HW3 7192   1.803   3.268   2.949  1.7761 -3.0677 -0.0407
 1797SOL    MW4 7193   1.786   3.275   3.034  0.7571 -0.5742 -0.4078
 1798SOL     OW 7194   1.822   3.550   3.138  0.0540 -0.1920 -0.5102
 1798SOL    HW2 7195   1.819   3.455   3.130 -1.2759 -0.4313  2.2038
 1798SOL    HW3 7196   1.737   3.580   3.104 -0.5646 -0.1975  1.0130
 1798SOL    MW4 7197   1.811   3.542   3.132 -0.2031 -0.2243  0.0489
 1799SOL     OW 7198   2.022   3.644   2.983  0.2107  0.1704 -0.7059
 1799SOL    HW2 7199   2.035   3.736   3.008 -0.7782  0.0937  0.1327
 1799SOL    HW3 7200   1.940   3.619   3.026 -0.4933 -0.5632 -2.4331
 1799SOL    MW4 7201   2.013   3.653   2.992 -0.0126  0.0635 -0.8231
 1800SOL     OW 7202   2.044   3.899   3.075  0.4319 -0.0463  0.1270
 1800SOL    HW2 7203   2.027   3.896   3.169  2.6574 -0.3528  0.5560
 1800SOL    HW3 7204   1.965   3.938   3.037 -1.0971 -1.3241  1.9413
 1800SOL    MW4 7205   2.031   3.904   3.082  0.5238 -0.2553  0.4230
 1801SOL     OW 7206   1.791   4.019   2.998  0.1820  0.0444 -0.0573
 1801SOL    HW2 7207   1.771   4.109   3.026  0.2484  0.0617 -0.0646
 1801SOL    HW3 7208   1.777   4.020   2.903 -0.5918 -0.1646  0.0544
 1801SOL    MW4 7209   1.787   4.031   2.989  0.0886  0.0191 -0.0436
 1802SOL     OW 7210   1.771   4.264   3.109  0.4167 -0.0221 -0.4451
 1802SOL    HW2 7211   1.853   4.305   3.080 -0.1909  0.9713 -0.7586
 1802SOL    HW3 7212   1.702   4.314   3.066 -0.4753  0.8914  1.9758
 1802SOL    MW4 7213   1.773   4.276   3.100  0.2188  0.2295 -0.1670
 1803SOL     OW 7214   1.994   4.398   3.026 -0.4786 -0.1415  0.1878
 1803SOL    HW2 7215   1.996   4.486   3.064  0.2120 -0.2589  0.4331
 1803SOL    HW3 7216   2.007   4.411   2.932  0.8872 -0.0691  0.3814
 1803SOL    MW4 7217   1.996   4.411   3.019 -0.2073 -0.1475  0.2457
 1804SOL     OW 7218   2.478   0.008   3.164 -0.3158 -0.1222  0.0994
 1804SOL    HW2 7219   2.475  -0.079   3.123  1.4655 -0.5840  0.9043
 1804SOL    HW3 7220   2.412   0.058   3.117 -0.4170 -1.5246 -1.3190
 1804SOL    MW4 7221   2.469   0.003   3.152 -0.0941 -0.3682  0.0185
 1805SOL     OW 7222   2.244   0.091   3.030  0.0217 -0.4607 -0.0265
 1805SOL    HW2 7223   2.242   0.186   3.041 -0.6475 -0.3389 -1.0542
 1805SOL    HW3 7224   2.157   0.062   3.059 -0.1270 -0.6338 -0.6190
 1805SOL    MW4 7225   2.232   0.100   3.035 -0.0862 -0.4675 -0.2403
 1806SOL     OW 7226   2.227   0.364   3.113  0.3467 -0.4159  0.2012
 1806SOL    HW2 7227   2.212   0.373   3.207  0.0873 -0.3485  0.1531
 1806SOL    HW3 7228   2.148   0.400   3.072 -0.2005 -1.8234 -0.0190
 1806SOL    MW4 7229   2.215   0.370   3.120  0.2403 -0.5927  0.1658
 1807SOL     OW 7230   2.450   0.496   3.028 -0.5126 -0.1747  0.2077
 1807SOL    HW2 7231   2.367   0.455   3.054 -0.4201 -0.4025  0.1451
 1807SOL    HW3 7232   2.453   0.485   2.933 -1.1903  1.2809 -0.0014
 1807SOL    MW4 7233   2.439   0.489   3.019 -0.5898 -0.0127  0.1718
 1808SOL     OW 7234   2.472   0.765   3.112  0.2274  0.2754  0.3156
 1808SOL    HW2 7235   2.555   0.812   3.101  0.6685 -0.7852 -1.0928
 1808SOL    HW3 7236   2.491   0.676   3.080 -1.7492  0.3243 -1.1168
 1808SOL    MW4 7237   2.485   0.760   3.106  0.0248  0.1419 -0.0592
 1809SOL     OW 7238   2.225   0.889   3.028 -0.2407  0.1533 -0.1575
 1809SOL    HW2 7239   2.308   0.852   3.057  0.4721  1.5694 -0.3860
 1809SOL    HW3 7240   2.159   0.824   3.054  0.8726 -0.7121  0.5032
 1809SOL    MW4 7241   2.227   0.875   3.035  0.0002  0.2259 -0.1005
 1810SOL     OW 7242   2.245   1.146   3.106 -0.3172 -0.1392  0.2103
 1810SOL    HW2 7243   2.251   1.151   3.202 -1.2256  0.5373  0.2342
 1810SOL    HW3 7244   2.225   1.054   3.088  0.5308 -0.4148  0.6326
 1810SOL    MW4 7245   2.243   1.135   3.116 -0.3252 -0.0863  0.2691
 1811SOL     OW 7246   2.482   1.287   3.017 -0.5045 -0.0577  0.0710
 1811SOL    HW2 7247   2.406   1.237   3.046 -0.8724 -0.7427 -2.0510
 1811SOL    HW3 7248   2.474   1.291   2.922  1.5185  0.8284 -0.0824
 1811SOL    MW4 7249   2.471   1.281   3.009 -0.2861 -0.0312 -0.2292
 1812SOL     OW 7250   2.483   1.543   3.124 -0.0282  0.4486 -0.0036
 1812SOL    HW2 7251   2.404   1.585   3.089 -0.6638 -0.1034  0.7504
 1812SOL    HW3 7252   2.487   1.459   3.079 -0.9402 -0.3337  1.3400
 1812SOL    MW4 7253   2.473   1.538   3.114 -0.2324  0.2726  0.2731
 1813SOL     OW 7254   2.234   1.696   3.043  0.1132  0.5479  0.0512
 1813SOL    HW2 7255   2.156   1.652   3.077  0.1458  0.5038  0.0693
 1813SOL    HW3 7256   2.235   1.674   2.950  0.0548  0.6220  0.0323
 1813SOL    MW4 7257   2.223   1.687   3.036  0.1098  0.5519  0.0511
 1814SOL     OW 7258   2.216   1.965   3.110  0.0262 -0.0233  0.3695
 1814SOL    HW2 7259   2.294   2.016   3.088 -0.8013  0.6649 -1.0447
 1814SOL    HW3 7260   2.237   1.875   3.084  0.2284  0.2231 -0.3319
 1814SOL    MW4 7261   2.229   1.960   3.104 -0.0563  0.1000  0.0903
 1815SOL     OW 7262   2.487   2.086   3.036 -0.0010  0.6882 -0.1726
 1815SOL    HW2 7263   2.546   2.013   3.056 -0.9895  0.1601  0.8818
 1815SOL    HW3 7264   2.482   2.088   2.941  0.3136 -0.3921 -0.2186
 1815SOL    MW4 7265   2.494   2.077   3.026 -0.0899  0.4760 -0.0396
 1816SOL     OW 7266   2.478   2.346   3.089  0.3064  0.1876 -0.0712
 1816SOL    HW2 7267   2.462   2.354   3.183 -0.1746 -0.1672 -0.1169
 1816SOL    HW3 7268   2.478   2.251   3.073  0.1611  0.2539 -0.4658
 1816SOL    MW4 7269   2.476   2.334   3.099  0.2237  0.1495 -0.1293
 1817SOL     OW 7270   2.246   2.462   2.978 -0.2824  0.0478  0.2075
 1817SOL    HW2 7271   2.229   2.547   3.018 -0.6264 -0.6388  1.5377
 1817SOL    HW3 7272   2.323   2.428   3.023 -0.4015 -0.5411 -0.0161
 1817SOL    MW4 7273   2.254   2.469   2.989 -0.3435 -0.1205  0.3535
 1818SOL     OW 7274   2.227   2.705   3.107 -0.1573  0.0111 -0.9788
 1818SOL    HW2 7275   2.306   2.757   3.092 -0.3780  0.5012 -0.4647
 1818SOL    HW3 7276   2.156   2.759   3.072 -0.3769  0.0143 -0.5276
 1818SOL    MW4 7277   2.228   2.719   3.100 -0.2154  0.0762 -0.8514
 1819SOL     OW 7278   2.446   2.832   3.043 -0.2880 -0.1250 -0.0739
 1819SOL    HW2 7279   2.459   2.927   3.056  1.5032 -0.4392  0.7348
 1819SOL    HW3 7280   2.456   2.819   2.949  1.1691  0.2950 -0.0011
 1819SOL    MW4 7281   2.449   2.843   3.033  0.1405 -0.1111  0.0424
 1820SOL     OW 7282   2.439   3.088   3.157 -0.2880  0.0757  0.2512
 1820SOL    HW2 7283   2.515   3.138   3.127 -0.6588 -0.2295 -1.2288
 1820SOL    HW3 7284   2.364   3.126   3.111 -0.9442 -0.0721  1.1775
 1820SOL    MW4 7285   2.439   3.099   3.147 -0.4235  0.0159  0.1782
 1821SOL     OW 7286   2.237   3.214   3.022 -0.1630 -0.0953  0.2923
 1821SOL    HW2 7287   2.221   3.308   3.031 -1.0990 -0.2439  0.2117
 1821SOL    HW3 7288   2.160   3.173   3.060 -0.6410 -0.8136 -1.4144
 1821SOL    MW4 7289   2.225   3.221   3.028 -0.3496 -0.2097  0.0565
 1822SOL     OW 7290   2.249   3.489   3.100  0.0386 -0.2634  0.5360
 1822SOL    HW2 7291   2.321   3.534   3.057  0.1409 -0.5670  0.3892
 1822SOL    HW3 7292   2.170   3.527   3.060  0.1314 -0.4553  0.1651
 1822SOL    MW4 7293   2.248   3.500   3.089  0.0643 -0.3287  0.4677
 1823SOL     OW 7294   2.440   3.669   3.008 -0.6043 -0.0212 -0.2955
 1823SOL    HW2 7295   2.518   3.632   3.047  0.5018  0.7141 -1.7637
 1823SOL    HW3 7296   2.422   3.747   3.060  0.3411  0.4603 -0.6790
 1823SOL    MW4 7297   2.448   3.675   3.020 -0.3337  0.1393 -0.5398
 1824SOL     OW 7298   2.421   3.892   3.157  0.2915 -0.8171 -0.3624
 1824SOL    HW2 7299   2.417   3.888   3.252 -0.3840  0.6136 -0.3129
 1824SOL    HW3 7300   2.514   3.903   3.137  0.3852 -0.6673  0.1593
 1824SOL    MW4 7301   2.433   3.893   3.167  0.2147 -0.6086 -0.2871
 1825SOL     OW 7302   2.256   4.034   2.972 -0.1120 -0.3524  0.5032
 1825SOL    HW2 7303   2.331   3.989   3.012  0.0512 -0.9232 -0.4229
 1825SOL    HW3 7304   2.180   3.995   3.014 -0.0163 -2.2837 -1.0382
 1825SOL    MW4 7305   2.256   4.023   2.983 -0.0779 -0.6825  0.1777
 1826SOL     OW 7306   2.242   4.271   3.125  0.5275 -0.4158  0.1516
 1826SOL    HW2 7307   2.256   4.185   3.084  0.1984 -1.0768  1.3898
 1826SOL    HW3 7308   2.151   4.292   3.103  0.9639  0.1763 -1.1471
 1826SOL    MW4 7309   2.232   4.262   3.117  0.5416 -0.4249  0.1436
 1827SOL     OW 7310   2.453   4.441   3.040 -0.3478 -0.0171  0.0497
 1827SOL    HW2 7311   2.375   4.387   3.055 -0.0023 -0.7729 -0.8194
 1827SOL    HW3 7312   2.471   4.433   2.947  0.9460 -0.0882  0.2856
 1827SOL    MW4 7313   2.445   4.433   3.030 -0.1315 -0.1262 -0.0338
 1828SOL     OW 7314   2.915   4.609   3.140 -0.0345  0.3363 -0.0310
 1828SOL    HW2 7315   2.984   4.651   3.089 -0.3702  1.3074  0.3046
 1828SOL    HW3 7316   2.896   4.528   3.092 -0.3140  1.2083 -1.4305
 1828SOL    MW4 7317   2.922   4.604   3.127 -0.1157  0.5795 -0.1714
 1829SOL     OW 7318   2.695   0.107   3.045 -0.4991  0.2510 -0.4156
 1829SOL    HW2 7319   2.771   0.067   3.086 -0.5418 -0.0200 -0.5982
 1829SOL    HW3 7320   2.621   0.080   3.099 -0.3223  1.5300  0.4747
 1829SOL    MW4 7321   2.695   0.098   3.057 -0.4814  0.3840 -0.3223
 1830SOL     OW 7322   2.692   0.386   3.112 -0.2346 -0.0173 -0.1393
 1830SOL    HW2 7323   2.684   0.293   3.088 -0.6709 -0.0523  0.1362
 1830SOL    HW3 7324   2.607   0.424   3.087  0.5693  0.6820 -1.9115
 1830SOL    MW4 7325   2.680   0.379   3.105 -0.1861  0.0703 -0.3368
 1831SOL     OW 7326   2.907   0.548   3.049 -0.1545  0.2125  0.1590
 1831SOL    HW2 7327   2.827   0.498   3.063 -0.1235  0.1447  0.0976
 1831SOL    HW3 7328   2.938   0.520   2.963  0.3390 -0.3272  0.5016
 1831SOL    MW4 7329   2.901   0.538   3.040 -0.0853  0.1324  0.1961
 1832SOL     OW 7330   2.959   0.785   3.167  0.0537 -1.0465  0.1994
 1832SOL    HW2 7331   2.974   0.787   3.261  2.0394  1.2219 -0.1172
 1832SOL    HW3 7332   2.932   0.695   3.148 -3.2543 -0.8407  3.3231
 1832SOL    MW4 7333   2.957   0.773   3.177 -0.1207 -0.7201  0.5698
 1833SOL     OW 7334   2.711   0.873   3.035 -0.5840  0.2010 -0.0970
 1833SOL    HW2 7335   2.711   0.965   3.062  0.0266  0.2731 -0.3371
 1833SOL    HW3 7336   2.795   0.838   3.066 -0.1645  0.1126 -1.2874
 1833SOL    MW4 7337   2.722   0.881   3.042 -0.4481  0.1989 -0.2857
 1834SOL     OW 7338   2.707   1.142   3.115  0.1638 -0.2217 -0.3913
 1834SOL    HW2 7339   2.786   1.180   3.075 -0.1039 -1.2450 -1.9223
 1834SOL    HW3 7340   2.635   1.196   3.082  0.0808 -0.1753 -0.1343
 1834SOL    MW4 7341   2.708   1.154   3.105  0.1175 -0.3506 -0.5594
 1835SOL     OW 7342   2.937   1.233   3.014  0.3002  0.2677  0.3539
 1835SOL    HW2 7343   3.014   1.196   3.056 -0.1033 -0.6800  0.2607
 1835SOL    HW3 7344   2.955   1.327   3.011  1.2168  0.1158  0.8083
 1835SOL    MW4 7345   2.950   1.241   3.019  0.3679  0.1226  0.4015
 1836SOL     OW 7346   2.942   1.510   3.079  0.2350  0.3614  0.6683
 1836SOL    HW2 7347   2.942   1.516   3.174  1.4445 -0.9928  0.7603
 1836SOL    HW3 7348   3.016   1.565   3.051 -0.2487  0.9310  0.4804
 1836SOL    MW4 7349   2.952   1.518   3.088  0.3307  0.2579  0.6556
 1837SOL     OW 7350   2.709   1.653   2.980  0.2942 -0.5502 -0.0900
 1837SOL    HW2 7351   2.783   1.606   3.019  0.1893  0.0507  0.8303
 1837SOL    HW3 7352   2.636   1.634   3.038  0.0148 -0.0890 -0.2946
 1837SOL    MW4 7353   2.709   1.644   2.993  0.2435 -0.4100  0.0044
 1838SOL     OW 7354   2.704   1.906   3.101  0.1104 -0.6542  0.0610
 1838SOL    HW2 7355   2.775   1.956   3.061 -0.1698 -0.4829 -0.2316
 1838SOL    HW3 7356   2.715   1.817   3.067 -0.1369 -0.5057 -0.4223
 1838SOL    MW4 7357   2.715   1.901   3.091  0.0408 -0.6120 -0.0414
 1839SOL     OW 7358   2.904   2.059   2.992  0.1559 -0.2812 -0.7766
 1839SOL    HW2 7359   2.904   2.146   3.034  1.4352 -0.5027 -0.2912
 1839SOL    HW3 7360   2.881   2.077   2.901 -2.8524  0.1842  0.0231
 1839SOL    MW4 7361   2.901   2.073   2.985 -0.0722 -0.2490 -0.6070
 1840SOL     OW 7362   2.932   2.308   3.144  0.2310  0.1807  0.0801
 1840SOL    HW2 7363   3.012   2.360   3.143  0.2309  0.1731 -0.8040
 1840SOL    HW3 7364   2.873   2.354   3.085 -0.3755  0.1217  0.6406
 1840SOL    MW4 7365   2.935   2.321   3.136  0.1510  0.1719  0.0374
 1841SOL     OW 7366   2.709   2.473   2.992 -0.1340 -0.0663 -0.1674
 1841SOL    HW2 7367   2.711   2.554   3.043 -0.0914 -0.4944  0.5202
 1841SOL    HW3 7368   2.626   2.431   3.016  1.0957 -1.5543  1.5783
 1841SOL    MW4 7369   2.698   2.478   3.002  0.0339 -0.3191  0.1536
 1842SOL     OW 7370   2.673   2.695   3.139  0.1323 -0.2321 -0.4131
 1842SOL    HW2 7371   2.664   2.693   3.234 -0.0039  0.0385 -0.4217
 1842SOL    HW3 7372   2.593   2.737   3.108  1.5558  2.5004 -0.4583
 1842SOL    MW4 7373   2.661   2.700   3.147  0.3022  0.1642 -0.4202
 1843SOL     OW 7374   2.900   2.841   3.011 -0.0354  0.2447  0.0214
 1843SOL    HW2 7375   2.984   2.813   3.046  0.0006  0.4383  0.0938
 1843SOL    HW3 7376   2.838   2.774   3.040  0.3461 -0.7109 -1.3110
 1843SOL    MW4 7377   2.903   2.829   3.019  0.0196  0.1442 -0.1448
 1844SOL     OW 7378   2.908   3.081   3.130  0.2134  0.0569  0.4421
 1844SOL    HW2 7379   2.828   3.120   3.095  0.0268 -0.4119  0.3437
 1844SOL    HW3 7380   2.908   2.992   3.096  1.0545  0.2267  0.0001
 1844SOL    MW4 7381   2.898   3.074   3.121  0.2998  0.0174  0.3708
 1845SOL     OW 7382   2.650   3.228   3.031  0.3856  0.4968 -0.2521
 1845SOL    HW2 7383   2.659   3.320   3.055 -1.4034  0.9810 -1.3206
 1845SOL    HW3 7384   2.657   3.228   2.935 -0.4036 -0.3745 -0.3127
 1845SOL    MW4 7385   2.652   3.240   3.021  0.0455  0.4457 -0.4011
 1846SOL     OW 7386   2.651   3.513   3.085 -0.2774 -0.0542 -0.5215
 1846SOL    HW2 7387   2.661   3.520   3.179 -0.8759  1.4207 -0.5501
 1846SOL    HW3 7388   2.727   3.559   3.049  0.0844 -0.8325 -0.7636
 1846SOL    MW4 7389   2.663   3.520   3.092 -0.3086  0.0377 -0.5572
 1847SOL     OW 7390   2.904   3.634   3.047 -0.0774  0.0913 -0.1351
 1847SOL    HW2 7391   2.979   3.586   3.082  0.0601 -0.6591 -1.4468
 1847SOL    HW3 7392   2.911   3.722   3.085  0.1298 -0.6667  1.6343
 1847SOL    MW4 7393   2.915   3.639   3.057 -0.0319 -0.1077 -0.0747
 1848SOL     OW 7394   2.903   3.901   3.132  0.2348 -0.2061  0.1887
 1848SOL    HW2 7395   2.889   3.906   3.226  0.6837  2.2395  0.1745
 1848SOL    HW3 7396   2.818   3.922   3.094  0.0350 -1.2682  0.0362
 1848SOL    MW4 7397   2.890   3.904   3.139  0.2677 -0.0235  0.1667
 1849SOL     OW 7398   2.655   3.985   3.039  0.0956 -0.3039  0.4314
 1849SOL    HW2 7399   2.641   4.077   3.061 -0.4373 -0.1185 -0.6540
 1849SOL    HW3 7400   2.652   3.982   2.943 -0.2812 -1.5025  0.4667
 1849SOL    MW4 7401   2.652   3.996   3.029 -0.0244 -0.4376  0.2928
 1850SOL     OW 7402   2.650   4.266   3.126 -0.1832 -0.2161  0.2586
 1850SOL    HW2 7403   2.638   4.271   3.221 -0.0428 -1.0988  0.3246
 1850SOL    HW3 7404   2.577   4.316   3.090 -0.6614 -0.5076  0.8164
 1850SOL    MW4 7405   2.639   4.273   3.134 -0.2278 -0.3710  0.3409
 1851SOL     OW 7406   2.881   4.369   3.002 -0.0908  0.0800  0.0872
 1851SOL    HW2 7407   2.962   4.342   3.046  0.8273  0.5011 -1.3274
 1851SOL    HW3 7408   2.811   4.338   3.060  0.9981 -2.5852  0.0348
 1851SOL    MW4 7409   2.883   4.361   3.016  0.1740 -0.2161 -0.1064
 1852SOL     OW 7410   3.316   4.601   3.111  0.4721 -0.3553  0.5033
 1852SOL    HW2 7411   3.399   4.645   3.093  0.1241  0.2551  0.3996
 1852SOL    HW3 7412   3.322   4.519   3.061  0.9133 -0.2042  0.3001
 1852SOL    MW4 7413   3.328   4.596   3.102  0.4844 -0.2548  0.4628
 1853SOL     OW 7414   3.104   0.117   3.037 -0.7229  0.2753  0.3902
 1853SOL    HW2 7415   3.100   0.204   3.077 -1.0743  0.8489 -0.8568
 1853SOL    HW3 7416   3.182   0.076   3.075  0.0059  1.5089  0.2508
 1853SOL    MW4 7417   3.114   0.123   3.047 -0.6731  0.5137  0.2073
 1854SOL     OW 7418   3.125   0.383   3.131 -0.4036  0.1367  0.2606
 1854SOL    HW2 7419   3.198   0.422   3.082  0.0789 -1.0998 -0.0409
 1854SOL    HW3 7420   3.050   0.439   3.111  0.3435  1.1284  0.1514
 1854SOL    MW4 7421   3.125   0.396   3.122 -0.2413  0.1044  0.2064
 1855SOL     OW 7422   3.331   0.483   2.996 -0.3183 -0.4569  0.1183
 1855SOL    HW2 7423   3.414   0.449   3.030 -0.1255  0.3992  0.5172
 1855SOL    HW3 7424   3.346   0.490   2.901  0.3949  0.5673  0.2935
 1855SOL    MW4 7425   3.344   0.480   2.988 -0.1988 -0.2088  0.1941
 1856SOL     OW 7426   3.387   0.732   3.115  0.1405 -0.2343  0.4706
 1856SOL    HW2 7427   3.392   0.721   3.210 -1.8222  0.6263  0.7038
 1856SOL    HW3 7428   3.374   0.644   3.081 -1.9303 -0.2805  1.2563
 1856SOL    MW4 7429   3.386   0.719   3.123 -0.3917 -0.1268  0.6051
 1857SOL     OW 7430   3.163   0.877   3.002  0.4728  0.2041  0.6404
 1857SOL    HW2 7431   3.232   0.820   3.038  0.2724 -1.5190 -1.6306
 1857SOL    HW3 7432   3.084   0.851   3.049  0.5410 -0.8578  0.1852
 1857SOL    MW4 7433   3.162   0.866   3.013  0.4554 -0.1634  0.2807
 1858SOL     OW 7434   3.181   1.137   3.119 -0.4508  0.3974  0.3350
 1858SOL    HW2 7435   3.252   1.179   3.070 -0.5673 -0.0759 -0.2385
 1858SOL    HW3 7436   3.184   1.045   3.092 -0.1304  0.0059  1.6595
 1858SOL    MW4 7437   3.191   1.130   3.109 -0.4239  0.2833  0.4341
 1859SOL     OW 7438   3.423   1.256   3.009  0.0879 -0.2061  0.2807
 1859SOL    HW2 7439   3.500   1.224   3.057  0.0939  0.7105  0.9122
 1859SOL    HW3 7440   3.413   1.346   3.039 -0.2185  0.2249 -1.0919
 1859SOL    MW4 7441   3.432   1.264   3.020  0.0483 -0.0283  0.1829
 1860SOL     OW 7442   3.370   1.508   3.111 -0.0306 -0.1771 -0.1767
 1860SOL    HW2 7443   3.360   1.514   3.206 -1.1715  0.5917 -0.3377
 1860SOL    HW3 7444   3.453   1.552   3.094  0.6674 -1.1746  0.5519
 1860SOL    MW4 7445   3.380   1.515   3.122 -0.0891 -0.2073 -0.1018
 1861SOL     OW 7446   3.168   1.665   3.033  0.2391  0.2842  0.3601
 1861SOL    HW2 7447   3.244   1.618   3.066 -0.1781 -0.4713  0.2546
 1861SOL    HW3 7448   3.178   1.663   2.938  0.2236  0.4197  0.3549
 1861SOL    MW4 7449   3.179   1.659   3.025  0.1820  0.2024  0.3455
 1862SOL     OW 7450   3.128   1.941   3.153 -0.1741 -0.0690 -0.0244
 1862SOL    HW2 7451   3.123   1.854   3.114 -0.2974 -0.0607 -0.0294
 1862SOL    HW3 7452   3.062   1.992   3.106  0.2374  0.1612 -0.3537
 1862SOL    MW4 7453   3.118   1.937   3.142 -0.1361 -0.0375 -0.0685
 1863SOL     OW 7454   3.364   2.047   3.023  0.3607 -0.3438  0.0615
 1863SOL    HW2 7455   3.450   2.011   3.045  1.0161  0.6171 -0.8821
 1863SOL    HW3 7456   3.302   1.993   3.071  1.5122 -0.9036  0.9260
 1863SOL    MW4 7457   3.367   2.035   3.032  0.5991 -0.2909  0.0511
 1864SOL     OW 7458   3.371   2.311   3.109  0.0873 -0.1072  0.1291
 1864SOL    HW2 7459   3.347   2.312   3.201 -1.9878  0.4037 -0.3905
 1864SOL    HW3 7460   3.379   2.218   3.087 -2.1194 -0.3227  0.1703
 1864SOL    MW4 7461   3.369   2.299   3.118 -0.4777 -0.0682  0.0660
 1865SOL     OW 7462   3.151   2.482   3.000  0.4661  0.2766 -0.4791
 1865SOL    HW2 7463   3.227   2.423   3.007 -0.0233 -0.1084  2.3526
 1865SOL    HW3 7464   3.138   2.493   2.906  2.7543 -1.3136 -1.0388
 1865SOL    MW4 7465   3.159   2.475   2.989  0.7035  0.0160 -0.1793
 1866SOL     OW 7466   3.134   2.751   3.109 -0.0202  0.3278  0.3643
 1866SOL    HW2 7467   3.111   2.736   3.201 -2.7181 -0.6099 -0.4143
 1866SOL    HW3 7468   3.143   2.663   3.072  1.9658  0.6974 -0.0858
 1866SOL    MW4 7469   3.132   2.737   3.116 -0.1141  0.2528  0.2022
 1867SOL     OW 7470   3.379   2.840   3.039 -0.1038  0.1109 -0.0171
 1867SOL    HW2 7471   3.380   2.927   3.080 -1.0259  1.0834 -1.9931
 1867SOL    HW3 7472   3.302   2.797   3.076  1.0572 -0.3491  1.9063
 1867SOL    MW4 7473   3.369   2.846   3.049 -0.0723  0.1785 -0.0240
 1868SOL     OW 7474   3.391   3.087   3.143  0.1108 -0.1378 -0.1087
 1868SOL    HW2 7475   3.387   3.105   3.237  0.2793 -0.3093 -0.0699
 1868SOL    HW3 7476   3.316   3.135   3.107 -0.3334 -0.5978  0.1955
 1868SOL    MW4 7477   3.381   3.096   3.151  0.0744 -0.2211 -0.0634
 1869SOL     OW 7478   3.138   3.238   3.058 -0.0165 -0.0612 -0.1237
 1869SOL    HW2 7479   3.058   3.191   3.080  1.4382 -1.7077  1.7443
 1869SOL    HW3 7480   3.136   3.243   2.962 -2.8768  0.9226 -0.0744
 1869SOL    MW4 7481   3.127   3.232   3.048 -0.2019 -0.1486  0.1293
 1870SOL     OW 7482   3.154   3.501   3.147  0.1476 -0.6059  0.3126
 1870SOL    HW2 7483   3.224   3.542   3.096 -0.3252 -0.1531  0.0270
 1870SOL    HW3 7484   3.164   3.407   3.130  0.8280 -0.5676  0.4614
 1870SOL    MW4 7485   3.165   3.494   3.138  0.1750 -0.5411  0.2946
 1871SOL     OW 7486   3.358   3.624   3.014  0.2677 -0.0068 -0.5520
 1871SOL    HW2 7487   3.430   3.578   3.056 -1.0985 -0.8964  0.9002
 1871SOL    HW3 7488   3.350   3.706   3.063 -0.4100 -0.4093  0.0241
 1871SOL    MW4 7489   3.366   3.629   3.026 -0.0020 -0.1773 -0.2844
 1872SOL     OW 7490   3.341   3.867   3.158  0.0699 -0.3296  0.5118
 1872SOL    HW2 7491   3.329   3.865   3.253  0.2499 -0.0179  0.5401
 1872SOL    HW3 7492   3.260   3.904   3.124  0.0977 -0.2237  0.5607
 1872SOL    MW4 7493   3.329   3.871   3.166  0.0973 -0.2745  0.5220
 1873SOL     OW 7494   3.125   3.990   3.000 -0.3039 -0.1988  0.0029
 1873SOL    HW2 7495   3.051   3.961   3.052 -0.7126  1.1570  0.1913
 1873SOL    HW3 7496   3.104   3.963   2.910 -0.1451 -1.4668  0.3323
 1873SOL    MW4 7497   3.113   3.982   2.995 -0.3369 -0.1872  0.0712
 1874SOL     OW 7498   3.097   4.247   3.117 -0.3068 -0.1606 -0.3828
 1874SOL    HW2 7499   3.104   4.236   3.212  0.0269  1.5311 -0.1875
 1874SOL    HW3 7500   3.107   4.159   3.082 -0.7300 -0.8476  1.1669
 1874SOL    MW4 7501   3.099   4.234   3.125 -0.3186 -0.0280 -0.1526
 1875SOL     OW 7502   3.318   4.347   2.974  0.1831 -0.0986  0.0854
 1875SOL    HW2 7503   3.392   4.292   3.000  0.2731  0.1777  0.4195
 1875SOL    HW3 7504   3.246   4.320   3.031 -0.7774 -2.2781 -2.0627
 1875SOL    MW4 7505   3.318   4.336   2.985  0.0683 -0.3497 -0.1539
 1876SOL     OW 7506   3.768   4.651   3.153  0.4353 -0.0403 -0.2479
 1876SOL    HW2 7507   3.782   4.563   3.117  0.0413 -0.1547 -0.1300
 1876SOL    HW3 7508   3.675   4.669   3.137  0.6228  0.5373 -0.6701
 1876SOL    MW4 7509   3.758   4.642   3.146  0.4080  0.0208 -0.2881
 1877SOL     OW 7510   3.530   0.092   3.038 -0.1954  0.3610 -0.2957
 1877SOL    HW2 7511   3.509   0.184   3.056 -0.8912  0.3961 -1.2040
 1877SOL    HW3 7512   3.532   0.087   2.942 -0.5221 -0.6508 -0.2554
 1877SOL    MW4 7513   3.528   0.104   3.027 -0.3303  0.2321 -0.4102
 1878SOL     OW 7514   3.535   0.361   3.125 -0.2363 -0.4343 -0.0176
 1878SOL    HW2 7515   3.539   0.353   3.220  0.8834 -0.8977 -0.1016
 1878SOL    HW3 7516   3.623   0.388   3.099 -0.4837 -0.5001 -0.9397
 1878SOL    MW4 7517   3.547   0.364   3.134 -0.1212 -0.5041 -0.1503
 1879SOL     OW 7518   3.768   0.454   3.010  0.1797 -0.1571 -0.4050
 1879SOL    HW2 7519   3.835   0.407   3.059 -1.4098 -1.4514  0.5776
 1879SOL    HW3 7520   3.784   0.546   3.031  1.4143 -0.4752  0.1022
 1879SOL    MW4 7521   3.779   0.460   3.019  0.1329 -0.3698 -0.2084
 1880SOL     OW 7522   3.812   0.735   3.104  0.0294  0.0319  0.3357
 1880SOL    HW2 7523   3.811   0.753   3.198  0.4619 -0.8432  0.5109
 1880SOL    HW3 7524   3.893   0.776   3.073  0.5490 -0.7971  0.5763
 1880SOL    MW4 7525   3.822   0.743   3.112  0.1550 -0.1929  0.3905
 1881SOL     OW 7526   3.596   0.876   2.999  0.3721 -0.3040  0.0568
 1881SOL    HW2 7527   3.666   0.827   3.043 -0.6482 -1.2865  0.5994
 1881SOL    HW3 7528   3.515   0.834   3.027 -0.3882  0.0633 -1.5207
 1881SOL    MW4 7529   3.595   0.864   3.008  0.1372 -0.3852 -0.0797
 1882SOL     OW 7530   3.619   1.127   3.149 -0.1589 -0.4729 -0.1673
 1882SOL    HW2 7531   3.703   1.159   3.115 -0.3413  0.5991  0.3595
 1882SOL    HW3 7532   3.613   1.037   3.118  0.3629  0.0157 -1.7295
 1882SOL    MW4 7533   3.629   1.120   3.140 -0.1141 -0.2670 -0.3039
 1883SOL     OW 7534   3.821   1.264   3.026  0.3990 -0.0703  0.2503
 1883SOL    HW2 7535   3.836   1.348   3.068  1.4583 -0.3538  0.4495
 1883SOL    HW3 7536   3.803   1.285   2.934  0.2696  0.3958  0.3841
 1883SOL    MW4 7537   3.820   1.278   3.019  0.5217 -0.0462  0.2942
 1884SOL     OW 7538   3.812   1.523   3.105 -0.1515 -0.3951 -0.0684
 1884SOL    HW2 7539   3.803   1.550   3.196 -0.0042 -1.7719  0.3725
 1884SOL    HW3 7540   3.749   1.577   3.057  1.0393  1.5964  0.5714
 1884SOL    MW4 7541   3.802   1.533   3.110  0.0251 -0.3140  0.0742
 1885SOL     OW 7542   3.583   1.652   3.010 -0.1213  0.0301 -0.1828
 1885SOL    HW2 7543   3.580   1.741   3.047 -1.1021 -0.3576  0.7059
 1885SOL    HW3 7544   3.583   1.666   2.915 -1.9230  0.9712 -0.0808
 1885SOL    MW4 7545   3.583   1.666   3.003 -0.4885  0.1031 -0.0521
 1886SOL     OW 7546   3.585   1.915   3.131 -0.3616  0.6023 -0.2625
 1886SOL    HW2 7547   3.592   1.907   3.227 -0.0324 -0.6634 -0.3821
 1886SOL    HW3 7548   3.671   1.949   3.105 -0.2262  0.3359 -0.1682
 1886SOL    MW4 7549   3.598   1.918   3.140 -0.3003  0.4002 -0.2658
 1887SOL     OW 7550   3.827   2.037   3.051 -0.0507 -0.0197 -0.3236
 1887SOL    HW2 7551   3.842   2.129   3.072 -2.2412  0.2698  0.0914
 1887SOL    HW3 7552   3.825   2.034   2.955 -0.8436  0.5082 -0.3231
 1887SOL    MW4 7553   3.829   2.049   3.041 -0.4443  0.0881 -0.2688
 1888SOL     OW 7554   3.825   2.310   3.115 -0.1710 -0.6744 -0.4729
 1888SOL    HW2 7555   3.807   2.317   3.209  1.6793 -1.8830 -0.0083
 1888SOL    HW3 7556   3.761   2.369   3.075 -0.6342  0.2828  1.5709
 1888SOL    MW4 7557   3.814   2.319   3.122  0.0120 -0.7076 -0.1420
 1889SOL     OW 7558   3.594   2.458   3.003 -0.0032 -0.2322 -0.1378
 1889SOL    HW2 7559   3.592   2.543   3.047 -0.9374  0.0637 -0.7382
 1889SOL    HW3 7560   3.515   2.413   3.034 -0.5869 -0.0857 -1.3550
 1889SOL    MW4 7561   3.583   2.464   3.013 -0.2035 -0.1738 -0.3776
 1890SOL     OW 7562   3.609   2.713   3.147 -0.1234 -0.2597 -0.3862
 1890SOL    HW2 7563   3.684   2.746   3.099 -0.9215 -0.4779 -1.8017
 1890SOL    HW3 7564   3.534   2.761   3.110 -0.8927 -1.3220 -0.2232
 1890SOL    MW4 7565   3.609   2.724   3.136 -0.3302 -0.4287 -0.5514
 1891SOL     OW 7566   3.850   2.812   3.028 -0.0479  0.4771  0.3713
 1891SOL    HW2 7567   3.857   2.898   3.068  0.9055  0.3235  0.5529
 1891SOL    HW3 7568   3.838   2.830   2.935 -0.6912  0.8087  0.5113
 1891SOL    MW4 7569   3.849   2.825   3.021 -0.0070  0.5006  0.4137
 1892SOL     OW 7570   3.832   3.065   3.151 -0.2538  0.1010  0.0894
 1892SOL    HW2 7571   3.917   3.104   3.131  0.0152 -0.6216 -0.1874
 1892SOL    HW3 7572   3.769   3.133   3.129  0.2130  0.3920 -0.3595
 1892SOL    MW4 7573   3.835   3.079   3.145 -0.1567  0.0441 -0.0064
 1893SOL     OW 7574   3.624   3.220   3.047  0.3653  0.6903 -0.3529
 1893SOL    HW2 7575   3.543   3.172   3.063  1.3330 -0.6834  0.5005
 1893SOL    HW3 7576   3.631   3.223   2.951 -0.0230 -0.3296 -0.4188
 1893SOL    MW4 7577   3.614   3.214   3.036  0.4418  0.3745 -0.2490
 1894SOL     OW 7578   3.577   3.480   3.126  0.1610 -0.3724  0.2146
 1894SOL    HW2 7579   3.651   3.535   3.100  1.6863 -1.9919  1.0763
 1894SOL    HW3 7580   3.603   3.391   3.103 -1.0298 -1.0967  1.5598
 1894SOL    MW4 7581   3.590   3.476   3.120  0.2052 -0.6816  0.5058
 1895SOL     OW 7582   3.821   3.597   3.028  0.1280  0.0266 -0.0621
 1895SOL    HW2 7583   3.839   3.682   3.067 -1.4455 -0.2393  1.3077
 1895SOL    HW3 7584   3.815   3.614   2.934  0.6556  1.2707  0.1236
 1895SOL    MW4 7585   3.823   3.610   3.020 -0.0100  0.1557  0.1431
 1896SOL     OW 7586   3.823   3.859   3.116 -0.1321  0.0386 -0.0024
 1896SOL    HW2 7587   3.839   3.854   3.210 -0.1222 -2.1994 -0.1007
 1896SOL    HW3 7588   3.738   3.901   3.109  0.6026  1.7198  0.9381
 1896SOL    MW4 7589   3.814   3.864   3.128 -0.0339 -0.0349  0.1087
 1897SOL     OW 7590   3.596   3.981   3.054 -0.1836  0.4184 -0.2646
 1897SOL    HW2 7591   3.516   3.931   3.071 -0.6528  0.9605 -0.8620
 1897SOL    HW3 7592   3.604   3.981   2.958 -0.0285  1.2413 -0.2540
 1897SOL    MW4 7593   3.587   3.974   3.043 -0.2250  0.5985 -0.3420
 1898SOL     OW 7594   3.548   4.246   3.123 -0.2502 -0.0277  0.2721
 1898SOL    HW2 7595   3.630   4.294   3.113  0.3955 -1.4151 -1.3349
 1898SOL    HW3 7596   3.572   4.154   3.109 -2.1247 -0.4187 -0.5336
 1898SOL    MW4 7597   3.562   4.240   3.120 -0.4124 -0.2624 -0.0462
 1899SOL     OW 7598   3.793   4.391   3.061 -0.2096 -0.1982 -0.1812
 1899SOL    HW2 7599   3.863   4.329   3.082  0.6777  0.9722  0.3592
 1899SOL    HW3 7600   3.803   4.407   2.967 -0.0987 -0.4402 -0.2125
 1899SOL    MW4 7601   3.803   4.385   3.051 -0.0779 -0.0757 -0.1140
 1900SOL     OW 7602   4.205   4.631   3.057 -0.4526 -0.3283 -0.0089
 1900SOL    HW2 7603   4.213   4.636   3.152 -0.9347  0.8339 -0.0107
 1900SOL    HW3 7604   4.203   4.537   3.037  0.4065 -0.5771  1.0507
 1900SOL    MW4 7605   4.206   4.619   3.067 -0.4029 -0.2078  0.1306
 1901SOL     OW 7606   3.969   0.097   2.982 -0.1015 -0.2193  0.2328
 1901SOL    HW2 7607   4.045   0.047   3.013 -0.1966 -0.6856 -0.2929
 1901SOL    HW3 7608   3.896   0.066   3.036 -0.2043 -0.8029 -0.2451
 1901SOL    MW4 7609   3.969   0.086   2.993 -0.1276 -0.3578  0.1004
 1902SOL     OW 7610   3.980   0.318   3.129  0.3391  0.0681  0.4795
 1902SOL    HW2 7611   4.059   0.366   3.102  0.2901  0.4194  0.9460
 1902SOL    HW3 7612   3.968   0.251   3.061  0.5189  0.5926 -0.0795
 1902SOL    MW4 7613   3.989   0.315   3.116  0.3564  0.1837  0.4673
 1903SOL     OW 7614   4.222   0.448   3.041  0.4901 -0.0944  0.2975
 1903SOL    HW2 7615   4.222   0.533   3.085  0.8883  0.1323 -0.1312
 1903SOL    HW3 7616   4.247   0.468   2.951 -0.2763 -0.5622 -0.0167
 1903SOL    MW4 7617   4.226   0.462   3.035  0.4415 -0.1262  0.1995
 1904SOL     OW 7618   4.238   0.725   3.111  0.2682 -0.1793  0.3535
 1904SOL    HW2 7619   4.171   0.775   3.066  0.7585  0.0190 -0.1645
 1904SOL    HW3 7620   4.320   0.770   3.090  0.7397 -1.3314 -0.3238
 1904SOL    MW4 7621   4.240   0.737   3.103  0.3951 -0.3051  0.1958
 1905SOL     OW 7622   4.030   0.850   2.984 -0.1449  0.2679 -0.1567
 1905SOL    HW2 7623   4.028   0.942   3.009  1.7476  0.3231 -0.1454
 1905SOL    HW3 7624   4.021   0.850   2.889 -2.1908  0.3373  0.0175
 1905SOL    MW4 7625   4.028   0.862   2.975 -0.1652  0.2844 -0.1322
 1906SOL     OW 7626   4.040   1.128   3.098 -0.5576  0.1790 -0.5578
 1906SOL    HW2 7627   4.039   1.127   3.194 -0.3380 -0.7791 -0.5614
 1906SOL    HW3 7628   3.957   1.168   3.074 -1.7969 -1.9579  0.0221
 1906SOL    MW4 7629   4.029   1.133   3.108 -0.6922 -0.2294 -0.4818
 1907SOL     OW 7630   4.232   1.296   3.004 -0.1727  0.1277  0.1281
 1907SOL    HW2 7631   4.163   1.235   3.027  0.2116 -0.3473  0.0256
 1907SOL    HW3 7632   4.237   1.293   2.908 -1.0797  1.3424  0.0294
 1907SOL    MW4 7633   4.224   1.288   2.994 -0.2416  0.2253  0.1015
 1908SOL     OW 7634   4.241   1.519   3.151 -0.1324  0.1814 -0.0500
 1908SOL    HW2 7635   4.168   1.569   3.113  0.1056  0.7439  0.2290
 1908SOL    HW3 7636   4.244   1.439   3.099  0.0133  0.8232 -1.0436
 1908SOL    MW4 7637   4.231   1.515   3.139 -0.0818  0.3403 -0.1443
 1909SOL     OW 7638   4.038   1.669   3.010 -0.3116 -0.2306  0.0801
 1909SOL    HW2 7639   4.035   1.755   3.052 -1.6859  0.2506 -0.9948
 1909SOL    HW3 7640   3.956   1.627   3.035  0.4052 -1.2859  0.6991
 1909SOL    MW4 7641   4.027   1.675   3.019 -0.3984 -0.3064  0.0200
 1910SOL     OW 7642   4.056   1.897   3.141  0.1791 -0.1315  0.0323
 1910SOL    HW2 7643   4.132   1.947   3.110 -0.0918  1.0277  1.1706
 1910SOL    HW3 7644   3.982   1.935   3.095  0.1359 -0.4184 -0.1363
 1910SOL    MW4 7645   4.056   1.909   3.131  0.1376 -0.0164  0.1602
 1911SOL     OW 7646   4.254   2.059   3.049 -0.0219 -0.1069  0.0039
 1911SOL    HW2 7647   4.243   2.141   3.099 -0.6280  0.8104 -1.5871
 1911SOL    HW3 7648   4.253   2.087   2.957  1.9657 -1.6530 -0.5279
 1911SOL    MW4 7649   4.253   2.074   3.044  0.1604 -0.1899 -0.2762
 1912SOL     OW 7650   4.228   2.316   3.170  0.1873 -0.0603  0.0097
 1912SOL    HW2 7651   4.169   2.369   3.116 -0.8163 -1.2445 -0.0886
 1912SOL    HW3 7652   4.315   2.351   3.152 -0.2147  0.0571 -1.8286
 1912SOL    MW4 7653   4.232   2.328   3.160  0.0018 -0.2011 -0.2458
 1913SOL     OW 7654   4.033   2.439   3.017 -0.4025  0.1396 -0.7714
 1913SOL    HW2 7655   4.032   2.531   3.044 -0.3143  0.0767 -0.5543
 1913SOL    HW3 7656   3.957   2.401   3.061  0.2707 -0.1741  0.1202
 1913SOL    MW4 7657   4.023   2.446   3.026 -0.3020  0.0900 -0.6251
 1914SOL     OW 7658   4.071   2.692   3.153 -0.0365  0.3242  0.1205
 1914SOL    HW2 7659   4.055   2.690   3.247  0.8059  1.9881  0.2977
 1914SOL    HW3 7660   3.990   2.727   3.116 -0.2345 -0.0009  0.2335
 1914SOL    MW4 7661   4.058   2.696   3.161  0.0485  0.5009  0.1588
 1915SOL     OW 7662   4.295   2.834   3.025 -0.0205 -0.8329 -0.3589
 1915SOL    HW2 7663   4.218   2.787   3.059 -1.2762  0.3678 -1.4784
 1915SOL    HW3 7664   4.368   2.798   3.075 -1.2624 -2.2049  0.5506
 1915SOL    MW4 7665   4.294   2.823   3.036 -0.3500 -0.8555 -0.3866
 1916SOL     OW 7666   4.272   3.079   3.136  0.3656  0.1502 -0.5362
 1916SOL    HW2 7667   4.196   3.124   3.099 -0.5796 -1.1335 -0.1904
 1916SOL    HW3 7668   4.278   2.997   3.087  2.5087  0.9211 -1.6564
 1916SOL    MW4 7669   4.263   3.074   3.124  0.5237  0.0826 -0.6384
 1917SOL     OW 7670   4.050   3.192   3.040 -0.2804 -0.2416  0.5102
 1917SOL    HW2 7671   4.057   3.280   3.076  0.1210  0.0928 -0.3870
 1917SOL    HW3 7672   4.039   3.205   2.946  1.0493 -1.1796  0.2089
 1917SOL    MW4 7673   4.049   3.205   3.032 -0.0520 -0.3212  0.3521
 1918SOL     OW 7674   4.042   3.463   3.129 -0.2188 -0.2492  0.4652
 1918SOL    HW2 7675   4.038   3.470   3.224  1.5763  0.5528  0.4955
 1918SOL    HW3 7676   3.957   3.495   3.099 -0.8176 -0.5655  1.7962
 1918SOL    MW4 7677   4.030   3.468   3.138 -0.0610 -0.1851  0.6448
 1919SOL     OW 7678   4.261   3.620   3.000  0.0946  0.4087 -0.0943
 1919SOL    HW2 7679   4.246   3.706   3.040 -1.2892 -0.8405  2.1995
 1919SOL    HW3 7680   4.201   3.561   3.046  0.4703 -1.6615 -2.1516
 1919SOL    MW4 7681   4.251   3.623   3.011 -0.0384 -0.0293 -0.0631
 1920SOL     OW 7682   4.248   3.861   3.151 -0.0424  0.2662  0.2359
 1920SOL    HW2 7683   4.172   3.888   3.099  0.6540  0.2969 -0.7861
 1920SOL    HW3 7684   4.321   3.911   3.115  0.6266 -0.4311  0.5990
 1920SOL    MW4 7685   4.247   3.871   3.139  0.1378  0.1782  0.1490
 1921SOL     OW 7686   4.048   3.961   3.003  0.1380  0.1298  0.2245
 1921SOL    HW2 7687   4.029   4.051   3.031 -0.2812 -0.0953  0.6763
 1921SOL    HW3 7688   3.969   3.912   3.027 -0.0802 -0.1432 -1.0362
 1921SOL    MW4 7689   4.035   3.966   3.010  0.0539  0.0641  0.1178
 1922SOL     OW 7690   3.984   4.212   3.099  0.0007  0.0567  0.3772
 1922SOL    HW2 7691   3.996   4.226   3.193  0.1802  2.7903 -0.0227
 1922SOL    HW3 7692   4.055   4.261   3.058 -1.3326  0.6614 -1.2604
 1922SOL    MW4 7693   3.995   4.220   3.106 -0.1515  0.4972  0.1083
 1923SOL     OW 7694   4.204   4.354   3.006  0.1118 -0.0041  0.3129
 1923SOL    HW2 7695   4.276   4.324   3.062  0.3226  1.4264  0.8129
 1923SOL    HW3 7696   4.247   4.376   2.923  0.0838 -0.1844  0.2487
 1923SOL    MW4 7697   4.219   4.353   3.002  0.1359  0.1608  0.3704
 1924SOL     OW 7698   0.201   4.638   3.373  0.7307 -0.3077 -0.5101
 1924SOL    HW2 7699   0.262   4.694   3.421 -0.1439  0.4786 -0.2924
 1924SOL    HW3 7700   0.209   4.552   3.415  0.6499  0.1450  0.4398
 1924SOL    MW4 7701   0.210   4.634   3.385  0.6047 -0.1442 -0.3561
 1925SOL     OW 7702   4.471   0.077   3.488 -0.0613 -0.0228 -0.1760
 1925SOL    HW2 7703   4.474   0.167   3.455  0.7334  0.0090 -0.0226
 1925SOL    HW3 7704   4.545   0.034   3.445 -1.0335 -0.8771 -1.0331
 1925SOL    MW4 7705   4.481   0.083   3.478 -0.0847 -0.1313 -0.2688
 1926SOL     OW 7706   4.463   0.338   3.358 -0.3092  0.1652 -0.0447
 1926SOL    HW2 7707   4.383   0.380   3.390  0.0468  0.7120  0.1391
 1926SOL    HW3 7708   4.534   0.397   3.386  0.2822 -1.0486  1.0482
 1926SOL    MW4 7709   4.462   0.351   3.366 -0.1842  0.0772  0.1237
 1927SOL     OW 7710   0.183   0.493   3.519 -0.1543  0.4962  0.0715
 1927SOL    HW2 7711   0.263   0.459   3.480  0.9180  0.6116  2.1193
 1927SOL    HW3 7712   0.166   0.575   3.471  0.7775  0.3126 -0.5828
 1927SOL    MW4 7713   0.191   0.500   3.508  0.1101  0.4872  0.2553
 1928SOL     OW 7714   0.194   0.720   3.350  0.2302 -0.2660 -0.0974
 1928SOL    HW2 7715   0.268   0.757   3.398 -0.2549 -0.0778  0.5100
 1928SOL    HW3 7716   0.119   0.773   3.377 -0.3776 -1.3544  0.3812
 1928SOL    MW4 7717   0.194   0.732   3.360  0.0860 -0.3848  0.0459
 1929SOL     OW 7718   4.479   0.862   3.457 -0.5381 -0.1690  0.1018
 1929SOL    HW2 7719   4.464   0.863   3.552 -1.8837 -0.4098 -0.0959
 1929SOL    HW3 7720   4.463   0.952   3.429 -2.1473 -0.5271 -0.1787
 1929SOL    MW4 7721   4.475   0.874   3.466 -0.9280 -0.2480  0.0387
 1930SOL     OW 7722   4.440   1.137   3.381  0.0312  0.2471 -0.1380
 1930SOL    HW2 7723   4.524   1.176   3.403  0.6799 -0.9866 -0.4064
 1930SOL    HW3 7724   4.442   1.128   3.286 -0.9705  1.4818 -0.2884
 1930SOL    MW4 7725   4.451   1.141   3.371 -0.0153  0.2472 -0.1932
 1931SOL     OW 7726   0.199   1.248   3.470 -0.2482 -0.2349  0.2507
 1931SOL    HW2 7727   0.286   1.212   3.449  0.1565  0.5427  0.5905
 1931SOL    HW3 7728   0.191   1.325   3.414 -1.4340 -1.2758 -1.0402
 1931SOL    MW4 7729   0.209   1.253   3.460 -0.3512 -0.2697  0.1252
 1932SOL     OW 7730   0.168   1.523   3.360 -0.1491 -0.2987  0.1523
 1932SOL    HW2 7731   0.245   1.572   3.388 -0.8674  1.0157 -0.1135
 1932SOL    HW3 7732   0.179   1.511   3.266 -0.4808  0.2758  0.0399
 1932SOL    MW4 7733   0.180   1.528   3.351 -0.2876 -0.0494  0.1024
 1933SOL     OW 7734   4.431   1.633   3.525  0.1668 -0.4441  0.2448
 1933SOL    HW2 7735   4.352   1.590   3.493 -0.0676  1.4778 -1.8863
 1933SOL    HW3 7736   4.503   1.588   3.480 -0.0195  0.7175 -1.2538
 1933SOL    MW4 7737   4.430   1.622   3.515  0.1113 -0.0372 -0.2341
 1934SOL     OW 7738   4.478   1.888   3.428  0.1473  0.6392 -0.5308
 1934SOL    HW2 7739   4.461   1.799   3.457 -0.1444  0.8091 -0.1741
 1934SOL    HW3 7740   4.469   1.885   3.333 -0.8957  0.5132 -0.4305
 1934SOL    MW4 7741   4.475   1.876   3.419 -0.0288  0.6450 -0.4705
 1935SOL     OW 7742   0.216   2.037   3.497 -0.2177 -0.3022 -0.6539
 1935SOL    HW2 7743   0.207   2.038   3.593 -3.1058  0.3433 -0.8709
 1935SOL    HW3 7744   0.153   1.972   3.468 -1.4763  1.5619 -2.2585
 1935SOL    MW4 7745   0.206   2.029   3.506 -0.7648  0.0289 -0.8942
 1936SOL     OW 7746   0.229   2.297   3.402  0.0974  0.0626 -0.6090
 1936SOL    HW2 7747   0.148   2.342   3.425 -0.0446  1.1564 -3.1063
 1936SOL    HW3 7748   0.213   2.205   3.424 -2.0284  0.1761 -1.5914
 1936SOL    MW4 7749   0.216   2.291   3.408 -0.2018  0.2219 -1.0681
 1937SOL     OW 7750   4.488   2.393   3.484 -0.2201  0.5593  0.3394
 1937SOL    HW2 7751   4.503   2.386   3.578 -0.4722  0.2799  0.3595
 1937SOL    HW3 7752   4.401   2.355   3.471  0.6408 -1.2448 -0.2807
 1937SOL    MW4 7753   4.478   2.387   3.495 -0.1398  0.2844  0.2602
 1938SOL     OW 7754   4.474   2.675   3.423 -0.1492 -0.4170  0.4633
 1938SOL    HW2 7755   4.550   2.712   3.468 -0.9080  0.7656  0.7964
 1938SOL    HW3 7756   4.469   2.584   3.454 -0.5046  0.3081  2.5974
 1938SOL    MW4 7757   4.483   2.667   3.433 -0.2962 -0.1653  0.7889
 1939SOL     OW 7758   0.223   2.801   3.532 -0.1131 -0.5320 -0.8148
 1939SOL    HW2 7759   0.296   2.758   3.487  1.4015 -0.3010  1.3595
 1939SOL    HW3 7760   0.229   2.892   3.505 -0.6578 -0.8339 -1.9862
 1939SOL    MW4 7761   0.234   2.807   3.523  0.0149 -0.5414 -0.6825
 1940SOL     OW 7762   0.226   3.071   3.417 -0.7558 -0.0119 -0.1696
 1940SOL    HW2 7763   0.154   3.126   3.449 -1.0540  0.1917 -1.1586
 1940SOL    HW3 7764   0.220   3.078   3.321  2.1493  2.0610 -0.2562
 1940SOL    MW4 7765   0.216   3.079   3.408 -0.4118  0.2884 -0.3115
 1941SOL     OW 7766   0.012   3.216   3.488  0.6369 -0.0222  0.0978
 1941SOL    HW2 7767  -0.065   3.166   3.459  0.2298  0.2647  0.6669
 1941SOL    HW3 7768  -0.010   3.307   3.467 -0.1612  0.3372  2.3069
 1941SOL    MW4 7769  -0.001   3.222   3.482  0.4779  0.0631  0.4643
 1942SOL     OW 7770   4.464   3.471   3.403 -0.2981  0.4492  0.1928
 1942SOL    HW2 7771   4.394   3.529   3.431  2.0619  3.7551 -0.4753
 1942SOL    HW3 7772   4.458   3.471   3.308  0.4145  0.5165  0.1477
 1942SOL    MW4 7773   4.454   3.479   3.394  0.1073  0.8943  0.0987
 1943SOL     OW 7774   0.227   3.578   3.486 -0.1728  0.7118 -0.0402
 1943SOL    HW2 7775   0.216   3.577   3.581 -0.1892  0.4553 -0.0451
 1943SOL    HW3 7776   0.147   3.537   3.452  1.2908 -2.2768 -0.0293
 1943SOL    MW4 7777   0.215   3.573   3.494  0.0181  0.2837 -0.0394
 1944SOL     OW 7778   0.269   3.836   3.396  0.3079 -0.4350 -0.0048
 1944SOL    HW2 7779   0.191   3.887   3.421  0.7261  0.6920 -0.9061
 1944SOL    HW3 7780   0.247   3.746   3.419 -1.7659 -0.3202 -1.3487
 1944SOL    MW4 7781   0.256   3.831   3.402  0.0894 -0.2712 -0.3010
 1945SOL     OW 7782   0.051   3.962   3.484 -0.0649  0.2986  0.1914
 1945SOL    HW2 7783   0.047   3.974   3.579 -0.1283  0.3704  0.1806
 1945SOL    HW3 7784   0.015   4.044   3.449  2.1987  1.2718  0.0568
 1945SOL    MW4 7785   0.045   3.975   3.492  0.2254  0.4365  0.1722
 1946SOL     OW 7786   4.462   4.218   3.406 -0.0771  0.5138  0.2552
 1946SOL    HW2 7787   4.391   4.279   3.429  0.5051  1.9202 -1.5734
 1946SOL    HW3 7788   4.539   4.254   3.449  0.4302  1.5596 -1.4654
 1946SOL    MW4 7789   4.463   4.231   3.415  0.0667  0.8373 -0.2131
 1947SOL     OW 7790   0.220   4.375   3.475 -0.6869  0.0648 -0.0196
 1947SOL    HW2 7791   0.216   4.381   3.570 -1.1021  0.1904 -0.0423
 1947SOL    HW3 7792   0.293   4.317   3.457 -0.0490  0.7483  0.3520
 1947SOL    MW4 7793   0.229   4.368   3.485 -0.6575  0.1716  0.0264
 1948SOL     OW 7794   0.640   4.667   3.357 -0.3004  0.2687  0.1173
 1948SOL    HW2 7795   0.717   4.705   3.399  0.3428 -0.3259 -0.5091
 1948SOL    HW3 7796   0.667   4.649   3.267 -0.6702 -1.3470  0.2967
 1948SOL    MW4 7797   0.654   4.669   3.351 -0.2644 -0.0229  0.0583
 1949SOL     OW 7798   0.399   0.145   3.444 -0.3713  0.1541 -0.0287
 1949SOL    HW2 7799   0.416   0.156   3.538 -2.7472  1.2036  0.3320
 1949SOL    HW3 7800   0.474   0.096   3.411  0.6266 -0.0021  2.3782
 1949SOL    MW4 7801   0.411   0.140   3.452 -0.5531  0.2719  0.3364
 1950SOL     OW 7802   0.411   0.401   3.359 -0.0029 -0.2225  0.1177
 1950SOL    HW2 7803   0.492   0.424   3.403 -0.8117  0.0428  1.4986
 1950SOL    HW3 7804   0.401   0.307   3.374 -0.3769 -0.0959  0.6762
 1950SOL    MW4 7805   0.420   0.392   3.366 -0.1590 -0.1708  0.3736
 1951SOL     OW 7806   0.662   0.488   3.465 -0.0048 -0.2020  0.0090
 1951SOL    HW2 7807   0.671   0.483   3.560 -0.7131 -1.0556  0.0368
 1951SOL    HW3 7808   0.739   0.443   3.430  0.0725 -0.2060  0.1874
 1951SOL    MW4 7809   0.673   0.481   3.473 -0.0880 -0.3151  0.0362
 1952SOL     OW 7810   0.631   0.750   3.351  0.8079  0.0690  0.2888
 1952SOL    HW2 7811   0.562   0.803   3.392 -0.0217 -0.4939 -0.3544
 1952SOL    HW3 7812   0.636   0.672   3.405  1.4932  0.4519  0.7870
 1952SOL    MW4 7813   0.622   0.747   3.363  0.7888  0.0453  0.2697
 1953SOL     OW 7814   0.405   0.834   3.475  0.4866 -0.0909  0.0736
 1953SOL    HW2 7815   0.405   0.826   3.570  0.0976  2.0600  0.2809
 1953SOL    HW3 7816   0.402   0.928   3.459 -0.0437 -0.4508 -2.0744
 1953SOL    MW4 7817   0.405   0.846   3.485  0.3653  0.1454 -0.1824
 1954SOL     OW 7818   0.426   1.114   3.392 -0.4707 -0.2021  0.4220
 1954SOL    HW2 7819   0.504   1.148   3.435  0.1724 -0.8398 -0.2194
 1954SOL    HW3 7820   0.439   1.134   3.299 -1.0811 -0.2852  0.3168
 1954SOL    MW4 7821   0.438   1.121   3.385 -0.4663 -0.2972  0.3235
 1955SOL     OW 7822   0.651   1.257   3.489  0.1905  0.3701  0.0973
 1955SOL    HW2 7823   0.732   1.225   3.449 -1.2004  0.1905 -2.6813
 1955SOL    HW3 7824   0.633   1.340   3.444 -0.9292  0.6336  1.0034
 1955SOL    MW4 7825   0.659   1.264   3.478 -0.1408  0.3812 -0.1498
 1956SOL     OW 7826   0.637   1.506   3.356  0.5114  0.2229 -0.1979
 1956SOL    HW2 7827   0.711   1.545   3.404  0.1629  0.4214  0.1870
 1956SOL    HW3 7828   0.560   1.545   3.397  0.2282  1.0156 -1.4851
 1956SOL    MW4 7829   0.637   1.516   3.368  0.4281  0.3537 -0.3170
 1957SOL     OW 7830   0.401   1.631   3.466  0.1203 -0.2506 -0.2739
 1957SOL    HW2 7831   0.408   1.627   3.562  0.7269 -2.4098 -0.3654
 1957SOL    HW3 7832   0.418   1.722   3.444  2.2043 -0.1737  1.5228
 1957SOL    MW4 7833   0.404   1.642   3.476  0.4753 -0.5254 -0.0489
 1958SOL     OW 7834   0.456   1.905   3.407 -0.0859 -0.2012 -0.0378
 1958SOL    HW2 7835   0.378   1.949   3.441 -0.2621 -0.7550  0.2676
 1958SOL    HW3 7836   0.458   1.928   3.314 -0.3575  0.1877  0.0513
 1958SOL    MW4 7837   0.446   1.914   3.399 -0.1449 -0.2229  0.0143
 1959SOL     OW 7838   0.694   2.040   3.507 -0.2043  0.8463 -0.5926
 1959SOL    HW2 7839   0.683   2.051   3.602 -0.7708  2.1857 -0.8072
 1959SOL    HW3 7840   0.615   1.994   3.479  0.1091  0.1618 -0.3823
 1959SOL    MW4 7841   0.682   2.035   3.516 -0.2377  0.9327 -0.5932
 1960SOL     OW 7842   0.680   2.285   3.398 -0.8181 -0.3871 -0.1209
 1960SOL    HW2 7843   0.753   2.337   3.432 -0.9571 -0.6556  0.6093
 1960SOL    HW3 7844   0.694   2.198   3.436 -0.9120 -0.7254 -0.8617
 1960SOL    MW4 7845   0.692   2.280   3.408 -0.8488 -0.4671 -0.1223
 1961SOL     OW 7846   0.451   2.435   3.478 -0.1074 -0.1599 -0.0554
 1961SOL    HW2 7847   0.529   2.382   3.460  0.1496 -0.4646  1.8555
 1961SOL    HW3 7848   0.378   2.382   3.447  0.3799 -0.2445 -1.0661
 1961SOL    MW4 7849   0.452   2.421   3.472 -0.0092 -0.2113  0.0634
 1962SOL     OW 7850   0.448   2.700   3.405  0.1404  0.3015 -0.1109
 1962SOL    HW2 7851   0.467   2.612   3.435 -1.4592  0.1905  0.5984
 1962SOL    HW3 7852   0.451   2.694   3.309 -2.2664 -1.0512 -0.1134
 1962SOL    MW4 7853   0.451   2.688   3.396 -0.3882  0.1084 -0.0176
 1963SOL     OW 7854   0.664   2.867   3.469 -0.5171  0.1668 -0.1564
 1963SOL    HW2 7855   0.729   2.801   3.443 -1.3751 -1.9522  2.8467
 1963SOL    HW3 7856   0.582   2.834   3.433 -0.8063  0.0419  0.6230
 1963SOL    MW4 7857   0.662   2.854   3.461 -0.6684 -0.1292  0.3427
 1964SOL     OW 7858   0.681   3.129   3.393 -0.2699  0.3016 -0.0125
 1964SOL    HW2 7859   0.606   3.172   3.435 -0.1263 -0.5003  1.0788
 1964SOL    HW3 7860   0.680   3.040   3.427 -0.1079 -0.3442 -1.6856
 1964SOL    MW4 7861   0.671   3.123   3.403 -0.2296  0.1106 -0.0893
 1965SOL     OW 7862   0.428   3.243   3.500  0.5925 -0.1580 -0.4032
 1965SOL    HW2 7863   0.416   3.247   3.595  0.0249  1.4718 -0.5274
 1965SOL    HW3 7864   0.351   3.197   3.469  0.1715  0.3990 -0.1869
 1965SOL    MW4 7865   0.416   3.237   3.509  0.4621  0.1305 -0.3910
 1966SOL     OW 7866   0.468   3.473   3.374  0.4557  0.1042 -0.4151
 1966SOL    HW2 7867   0.471   3.385   3.413 -0.9586 -0.9485 -2.5155
 1966SOL    HW3 7868   0.384   3.509   3.402 -0.0460 -0.1991 -1.4775
 1966SOL    MW4 7869   0.457   3.466   3.383  0.2029 -0.0747 -0.8324
 1967SOL     OW 7870   0.691   3.572   3.509 -0.0633 -0.4220 -0.2298
 1967SOL    HW2 7871   0.772   3.538   3.471  0.0118  1.2101 -1.5473
 1967SOL    HW3 7872   0.621   3.529   3.459  0.0366  1.9730 -2.4959
 1967SOL    MW4 7873   0.692   3.562   3.498 -0.0402  0.1093 -0.7026
 1968SOL     OW 7874   0.699   3.816   3.390 -0.0498  0.2987 -0.0349
 1968SOL    HW2 7875   0.635   3.865   3.440 -0.2683 -0.8651  0.8621
 1968SOL    HW3 7876   0.708   3.733   3.438  0.1983 -0.5856 -1.5830
 1968SOL    MW4 7877   0.692   3.811   3.403 -0.0459  0.0285 -0.1208
 1969SOL     OW 7878   0.506   3.986   3.473 -0.5541  0.4342 -0.0019
 1969SOL    HW2 7879   0.489   4.077   3.447 -1.1663  0.0896 -0.8104
 1969SOL    HW3 7880   0.425   3.940   3.452  0.0486 -0.4667 -0.3370
 1969SOL    MW4 7881   0.493   3.992   3.467 -0.5554  0.2699 -0.1528
 1970SOL     OW 7882   0.449   4.242   3.392  0.2218  0.2983 -0.0172
 1970SOL    HW2 7883   0.497   4.317   3.425 -1.5966  1.7470 -0.5904
 1970SOL    HW3 7884   0.448   4.254   3.297  0.4067 -0.7590 -0.1654
 1970SOL    MW4 7885   0.455   4.253   3.383  0.0063  0.3499 -0.1124
 1971SOL     OW 7886   0.634   4.436   3.499 -0.0077 -0.2560  0.4464
 1971SOL    HW2 7887   0.715   4.397   3.465  0.8259 -0.0153  2.1017
 1971SOL    HW3 7888   0.633   4.524   3.461  0.7724 -0.0816  0.8193
 1971SOL    MW4 7889   0.645   4.442   3.490  0.2052 -0.2012  0.7140
 1972SOL     OW 7890   1.066   4.617   3.358  0.3357  0.0112  0.1729
 1972SOL    HW2 7891   1.142   4.672   3.375 -0.1285  0.4871  0.7562
 1972SOL    HW3 7892   1.057   4.618   3.263  0.7401  0.3969  0.1350
 1972SOL    MW4 7893   1.075   4.625   3.348  0.3278  0.1248  0.2449
 1973SOL     OW 7894   0.883   0.108   3.499 -0.2683  0.3191 -0.0230
 1973SOL    HW2 7895   0.890   0.106   3.595 -1.1041  1.2328  0.0646
 1973SOL    HW3 7896   0.956   0.054   3.469  0.3932  0.5561  1.1179
 1973SOL    MW4 7897   0.894   0.101   3.508 -0.2913  0.4709  0.1391
 1974SOL     OW 7898   0.877   0.344   3.374 -0.4587  0.0597 -0.1199
 1974SOL    HW2 7899   0.950   0.395   3.411 -0.2992  1.2551 -2.0162
 1974SOL    HW3 7900   0.878   0.262   3.423  1.5946  0.4195  0.5016
 1974SOL    MW4 7901   0.887   0.340   3.385 -0.1667  0.2649 -0.2881
 1975SOL     OW 7902   1.089   0.489   3.466  0.4834  0.1861 -0.1520
 1975SOL    HW2 7903   1.083   0.507   3.560 -1.3453  1.1528 -0.4262
 1975SOL    HW3 7904   1.102   0.576   3.426 -3.7106  0.4592 -1.1443
 1975SOL    MW4 7905   1.090   0.503   3.473 -0.3112  0.3497 -0.3191
 1976SOL     OW 7906   1.071   0.756   3.341 -0.2845  0.2262 -0.0524
 1976SOL    HW2 7907   1.147   0.793   3.386 -0.0880 -0.0551 -0.1471
 1976SOL    HW3 7908   0.996   0.805   3.374  0.0547  1.2041 -0.7139
 1976SOL    MW4 7909   1.071   0.767   3.351 -0.2138  0.3181 -0.1522
 1977SOL     OW 7910   0.842   0.866   3.463  0.0551  0.0868 -0.0259
 1977SOL    HW2 7911   0.835   0.961   3.460  1.6492  0.2033 -0.6934
 1977SOL    HW3 7912   0.764   0.834   3.418  0.6121  1.1180 -1.7298
 1977SOL    MW4 7913   0.831   0.874   3.457  0.3389  0.2382 -0.3388
 1978SOL     OW 7914   0.863   1.152   3.370 -0.0649  0.6438 -0.4310
 1978SOL    HW2 7915   0.947   1.182   3.405  0.2572 -1.7558  0.9439
 1978SOL    HW3 7916   0.879   1.141   3.276  1.6910 -1.5004  0.0896
 1978SOL    MW4 7917   0.876   1.155   3.362  0.2093  0.0443 -0.1809
 1979SOL     OW 7918   1.095   1.265   3.521 -0.9870 -0.6412 -0.3324
 1979SOL    HW2 7919   1.093   1.267   3.616 -0.1644 -0.6207 -0.3091
 1979SOL    HW3 7920   1.090   1.357   3.494  0.3192 -0.5487 -0.2658
 1979SOL    MW4 7921   1.094   1.278   3.530 -0.7061 -0.6263 -0.3205
 1980SOL     OW 7922   1.102   1.547   3.384  0.3120 -0.0084 -0.2108
 1980SOL    HW2 7923   1.194   1.570   3.398  0.7932 -1.1876 -1.3271
 1980SOL    HW3 7924   1.092   1.544   3.289 -0.4464 -1.4908 -0.0987
 1980SOL    MW4 7925   1.113   1.549   3.374  0.2754 -0.3595 -0.3433
 1981SOL     OW 7926   0.875   1.644   3.460 -0.0268  0.0486 -0.1528
 1981SOL    HW2 7927   0.878   1.732   3.424 -1.5007  0.1294 -0.0826
 1981SOL    HW3 7928   0.954   1.601   3.426  0.5470  1.2999 -0.4004
 1981SOL    MW4 7929   0.886   1.650   3.451 -0.1456  0.2244 -0.1762
 1982SOL     OW 7930   0.904   1.908   3.382 -0.4435 -0.2040 -0.4339
 1982SOL    HW2 7931   0.981   1.950   3.420 -0.8400  0.1258  0.0171
 1982SOL    HW3 7932   0.831   1.937   3.437 -0.8874 -0.5307 -0.8408
 1982SOL    MW4 7933   0.904   1.917   3.395 -0.5544 -0.2036 -0.4281
 1983SOL     OW 7934   1.118   2.050   3.500 -0.1381 -0.1168  0.5666
 1983SOL    HW2 7935   1.198   2.006   3.470  0.5410  0.8588  0.8987
 1983SOL    HW3 7936   1.135   2.143   3.483 -0.9928  0.1489  1.1492
 1983SOL    MW4 7937   1.131   2.057   3.494 -0.1613  0.0470  0.6873
 1984SOL     OW 7938   1.133   2.318   3.385  0.0134 -0.1050  0.0523
 1984SOL    HW2 7939   1.215   2.360   3.411  0.0285  0.8682 -1.5268
 1984SOL    HW3 7940   1.139   2.309   3.290 -2.1714  1.0172 -0.2321
 1984SOL    MW4 7941   1.145   2.323   3.376 -0.2729  0.1714 -0.1936
 1985SOL     OW 7942   0.896   2.449   3.484  0.2095  0.2862 -0.4102
 1985SOL    HW2 7943   0.906   2.442   3.578  2.0845  4.3913 -0.1736
 1985SOL    HW3 7944   0.972   2.403   3.448 -0.4450 -1.1782  0.0641
 1985SOL    MW4 7945   0.907   2.442   3.491  0.3705  0.6346 -0.3164
 1986SOL     OW 7946   0.880   2.692   3.367  0.4115 -0.8091 -0.5389
 1986SOL    HW2 7947   0.951   2.726   3.422 -0.1579  0.4081 -0.5275
 1986SOL    HW3 7948   0.862   2.605   3.402  0.8102 -0.4884  0.4910
 1986SOL    MW4 7949   0.887   2.685   3.379  0.3890 -0.6062 -0.4015
 1987SOL     OW 7950   1.107   2.820   3.473 -0.0230 -0.1509  0.4603
 1987SOL    HW2 7951   1.101   2.823   3.569  0.3084 -1.3647  0.5294
 1987SOL    HW3 7952   1.176   2.756   3.455  0.8007  1.0125 -0.5799
 1987SOL    MW4 7953   1.115   2.812   3.484  0.1294 -0.1575  0.3322
 1988SOL     OW 7954   1.151   3.093   3.398  0.1885  0.1423 -0.2973
 1988SOL    HW2 7955   1.151   3.001   3.425 -0.4026  0.5172  1.0240
 1988SOL    HW3 7956   1.144   3.090   3.303  0.0116 -1.1841 -0.2524
 1988SOL    MW4 7957   1.150   3.080   3.389  0.0872  0.0168 -0.1170
 1989SOL     OW 7958   0.927   3.213   3.482  0.1231 -0.4212  0.2018
 1989SOL    HW2 7959   0.995   3.165   3.436 -0.3816  0.9838 -2.0656
 1989SOL    HW3 7960   0.845   3.171   3.454 -0.1362 -0.1061  0.4867
 1989SOL    MW4 7961   0.925   3.201   3.472  0.0223 -0.1942 -0.0598
 1990SOL     OW 7962   0.926   3.485   3.372  0.0886  0.1732 -0.3598
 1990SOL    HW2 7963   0.938   3.394   3.398  0.1032  0.8217  2.0570
 1990SOL    HW3 7964   0.929   3.484   3.276  1.8212 -2.1241 -0.3212
 1990SOL    MW4 7965   0.928   3.473   3.363  0.3191 -0.0444 -0.0358
 1991SOL     OW 7966   1.130   3.598   3.495  0.1415 -0.1616 -0.1557
 1991SOL    HW2 7967   1.124   3.610   3.590  1.3329  1.1551 -0.2294
 1991SOL    HW3 7968   1.047   3.557   3.471 -0.3594 -0.0949  1.3944
 1991SOL    MW4 7969   1.118   3.594   3.504  0.2326  0.0209  0.0391
 1992SOL     OW 7970   1.117   3.849   3.385 -0.4380 -0.3745  0.7352
 1992SOL    HW2 7971   1.207   3.873   3.403 -0.7548 -0.1599  2.0523
 1992SOL    HW3 7972   1.109   3.759   3.414 -0.0449 -1.1710 -1.5095
 1992SOL    MW4 7973   1.128   3.841   3.391 -0.4279 -0.4513  0.6128
 1993SOL     OW 7974   0.893   3.996   3.490  0.2066  0.1122  0.3918
 1993SOL    HW2 7975   0.969   3.956   3.447  0.6370  0.7603  0.5398
 1993SOL    HW3 7976   0.820   3.939   3.469  0.3941  0.4791 -1.2932
 1993SOL    MW4 7977   0.894   3.983   3.482  0.2881  0.2461  0.1890
 1994SOL     OW 7978   0.869   4.266   3.409 -0.1804  0.2930  0.3729
 1994SOL    HW2 7979   0.868   4.176   3.442  0.1368 -0.5455 -1.7996
 1994SOL    HW3 7980   0.885   4.256   3.315 -0.4101  2.6161  0.0741
 1994SOL    MW4 7981   0.871   4.253   3.401 -0.1689  0.4889  0.0469
 1995SOL     OW 7982   1.104   4.362   3.486  0.2545 -0.1770  0.2507
 1995SOL    HW2 7983   1.018   4.325   3.464  0.9499 -0.9038 -1.3144
 1995SOL    HW3 7984   1.102   4.450   3.451 -0.2387  0.1869  1.1729
 1995SOL    MW4 7985   1.092   4.368   3.479  0.2812 -0.2249  0.1659
 1996SOL     OW 7986   1.539   4.639   3.406 -0.1803  0.6860  0.4597
 1996SOL    HW2 7987   1.541   4.554   3.449  0.8199  0.1909 -0.5207
 1996SOL    HW3 7988   1.450   4.671   3.420 -0.5929 -0.5611  0.7827
 1996SOL    MW4 7989   1.528   4.632   3.413 -0.1028  0.4561  0.3730
 1997SOL     OW 7990   1.286   0.106   3.461  0.0993 -0.2142  0.2794
 1997SOL    HW2 7991   1.300   0.092   3.555  0.3519  0.1066  0.2921
 1997SOL    HW3 7992   1.285   0.201   3.451  0.0743 -0.2487 -0.0431
 1997SOL    MW4 7993   1.288   0.117   3.472  0.1293 -0.1764  0.2386
 1998SOL     OW 7994   1.317   0.375   3.366  0.0231  0.5197 -0.5565
 1998SOL    HW2 7995   1.385   0.431   3.402 -0.0690  0.6830 -0.6369
 1998SOL    HW3 7996   1.236   0.409   3.403 -0.2322  1.6720 -2.1637
 1998SOL    MW4 7997   1.315   0.387   3.376 -0.0227  0.6933 -0.7792
 1999SOL     OW 7998   1.498   0.527   3.494 -0.0277  0.1878  0.0248
 1999SOL    HW2 7999   1.493   0.523   3.590 -0.6528  0.9174  0.0303
 1999SOL    HW3 8000   1.575   0.475   3.471  1.2296  1.5644  1.0425
 1999SOL    MW4 8001   1.507   0.520   3.504  0.0557  0.4657  0.1598
 2000SOL     OW 8002   1.546   0.776   3.367 -0.0700  0.0610  0.3941
 2000SOL    HW2 8003   1.464   0.824   3.380  0.5029  1.0372  0.4810
 2000SOL    HW3 8004   1.530   0.690   3.406 -1.2060  0.0896 -0.0050
 2000SOL    MW4 8005   1.533   0.771   3.374 -0.1443  0.1936  0.3529
 2001SOL     OW 8006   1.284   0.894   3.461 -0.2858 -0.0006 -0.8195
 2001SOL    HW2 8007   1.288   0.888   3.556 -2.7521 -1.0672 -0.7612
 2001SOL    HW3 8008   1.306   0.985   3.442  2.1611 -0.2383  0.6161
 2001SOL    MW4 8009   1.288   0.905   3.471 -0.2883 -0.1727 -0.6224
 2002SOL     OW 8010   1.324   1.159   3.377 -0.5127  0.1755 -0.2483
 2002SOL    HW2 8011   1.397   1.195   3.427 -0.7955  0.5054 -0.0701
 2002SOL    HW3 8012   1.246   1.192   3.421 -0.7654  1.9053 -1.9101
 2002SOL    MW4 8013   1.323   1.168   3.389 -0.5833  0.4472 -0.4440
 2003SOL     OW 8014   1.560   1.245   3.531 -0.5213 -0.9105 -0.2492
 2003SOL    HW2 8015   1.572   1.255   3.625  0.2751  0.2563 -0.4715
 2003SOL    HW3 8016   1.630   1.186   3.504  1.4193  1.5364 -0.6620
 2003SOL    MW4 8017   1.571   1.239   3.540 -0.1602 -0.4337 -0.3330
 2004SOL     OW 8018   1.598   1.519   3.374  0.0738  0.0866  0.3887
 2004SOL    HW2 8019   1.594   1.427   3.400 -1.8135 -0.2730 -1.0755
 2004SOL    HW3 8020   1.581   1.518   3.280 -1.8279  2.0486  0.6648
 2004SOL    MW4 8021   1.595   1.507   3.365 -0.4261  0.2980  0.2319
 2005SOL     OW 8022   1.356   1.621   3.454 -0.2172 -0.0304  0.0842
 2005SOL    HW2 8023   1.343   1.615   3.549  0.1311 -1.6000  0.0424
 2005SOL    HW3 8024   1.438   1.575   3.438 -1.6638 -2.2123 -1.3064
 2005SOL    MW4 8025   1.365   1.614   3.464 -0.3621 -0.5254 -0.1048
 2006SOL     OW 8026   1.346   1.922   3.403  0.0220 -0.1601  0.2294
 2006SOL    HW2 8027   1.423   1.958   3.448 -0.0744 -0.8670  0.9650
 2006SOL    HW3 8028   1.362   1.828   3.400 -1.1336 -0.3907  1.0192
 2006SOL    MW4 8029   1.359   1.915   3.409 -0.1432 -0.2838  0.4306
 2007SOL     OW 8030   1.558   2.031   3.501  0.1500  0.1140  0.1091
 2007SOL    HW2 8031   1.640   1.989   3.474  0.3047 -0.1436  0.9531
 2007SOL    HW3 8032   1.563   2.119   3.465  1.4097  0.5336  1.2594
 2007SOL    MW4 8033   1.569   2.037   3.493  0.3366  0.1354  0.3722
 2008SOL     OW 8034   1.585   2.286   3.357  0.4267  0.0091  0.0304
 2008SOL    HW2 8035   1.500   2.329   3.371 -0.4720 -1.5251 -0.5412
 2008SOL    HW3 8036   1.609   2.309   3.267  0.8939  0.9092  0.3843
 2008SOL    MW4 8037   1.577   2.295   3.347  0.3698 -0.0746  0.0017
 2009SOL     OW 8038   1.372   2.440   3.490 -0.3474  0.0243 -0.3141
 2009SOL    HW2 8039   1.366   2.447   3.585 -0.8545 -1.3303 -0.2236
 2009SOL    HW3 8040   1.377   2.530   3.459  1.1887  0.4503  1.0727
 2009SOL    MW4 8041   1.372   2.452   3.498 -0.2116 -0.0982 -0.1192
 2010SOL     OW 8042   1.346   2.703   3.396  0.3255  0.0176  0.1230
 2010SOL    HW2 8043   1.419   2.760   3.421  0.5123  0.7156 -1.9295
 2010SOL    HW3 8044   1.353   2.695   3.301 -1.3887 -1.1298  0.0734
 2010SOL    MW4 8045   1.357   2.709   3.387  0.1240 -0.0417 -0.1543
 2011SOL     OW 8046   1.572   2.832   3.466  0.0286  0.4470  0.5998
 2011SOL    HW2 8047   1.647   2.793   3.421 -0.7218  0.2294 -0.4653
 2011SOL    HW3 8048   1.580   2.926   3.450 -0.6440  0.2982 -0.6018
 2011SOL    MW4 8049   1.583   2.839   3.458 -0.1591  0.3987  0.3008
 2012SOL     OW 8050   1.590   3.090   3.402  0.3450 -0.4858 -0.4812
 2012SOL    HW2 8051   1.663   3.144   3.434  0.8963 -1.7058  0.3370
 2012SOL    HW3 8052   1.512   3.131   3.441  0.6149  0.5819 -1.0389
 2012SOL    MW4 8053   1.589   3.103   3.412  0.4533 -0.5059 -0.4468
 2013SOL     OW 8054   1.366   3.213   3.499  0.7555  0.5454  0.3525
 2013SOL    HW2 8055   1.363   3.184   3.590  0.6930  0.3205  0.2769
 2013SOL    HW3 8056   1.285   3.181   3.460  0.9250  0.3763  0.1361
 2013SOL    MW4 8057   1.355   3.205   3.506  0.7696  0.4934  0.3140
 2014SOL     OW 8058   1.352   3.474   3.396 -0.1366 -0.3463 -0.3375
 2014SOL    HW2 8059   1.354   3.385   3.432 -1.0204 -0.1801  0.1158
 2014SOL    HW3 8060   1.272   3.513   3.432  0.7551  0.9633  0.2350
 2014SOL    MW4 8061   1.342   3.467   3.405 -0.1356 -0.1516 -0.2021
 2015SOL     OW 8062   1.565   3.646   3.493 -0.0954 -0.5018  0.2686
 2015SOL    HW2 8063   1.577   3.638   3.587  0.1504  0.0177  0.2856
 2015SOL    HW3 8064   1.495   3.584   3.472  0.5753 -1.3909  0.6333
 2015SOL    MW4 8065   1.557   3.637   3.502  0.0255 -0.5506  0.3189
 2016SOL     OW 8066   1.565   3.902   3.386  0.1038  0.1397  0.1557
 2016SOL    HW2 8067   1.551   3.816   3.426 -1.2042  0.5967  0.7324
 2016SOL    HW3 8068   1.569   3.884   3.292  0.8204 -0.6615  0.3270
 2016SOL    MW4 8069   1.563   3.888   3.379  0.0258  0.0943  0.2544
 2017SOL     OW 8070   1.337   4.010   3.492  0.0432  0.0064  0.2535
 2017SOL    HW2 8071   1.349   4.102   3.470  1.2270  0.0719  1.0827
 2017SOL    HW3 8072   1.411   3.965   3.451 -0.0969 -0.4561  0.4960
 2017SOL    MW4 8073   1.348   4.016   3.484  0.1809 -0.0460  0.3949
 2018SOL     OW 8074   1.364   4.291   3.408  0.5601  0.0417 -0.0621
 2018SOL    HW2 8075   1.273   4.300   3.435  0.6236 -0.5613  0.3605
 2018SOL    HW3 8076   1.361   4.295   3.312  0.0583 -0.2709 -0.0590
 2018SOL    MW4 8077   1.351   4.293   3.399  0.5023 -0.0791 -0.0059
 2019SOL     OW 8078   1.597   4.389   3.514 -0.4754 -0.2031  0.0284
 2019SOL    HW2 8079   1.668   4.367   3.455 -1.8386 -0.3125 -1.6080
 2019SOL    HW3 8080   1.521   4.343   3.479 -2.0571  2.4212 -0.0918
 2019SOL    MW4 8081   1.596   4.380   3.502 -0.8640  0.1287 -0.2033
 2020SOL     OW 8082   1.959   4.640   3.400  0.7008 -0.1896  0.4521
 2020SOL    HW2 8083   2.032   4.687   3.441  0.3454 -0.4978  1.4652
 2020SOL    HW3 8084   1.881   4.680   3.440  0.3335 -0.1562 -0.3012
 2020SOL    MW4 8085   1.958   4.652   3.411  0.6055 -0.2258  0.4864
 2021SOL     OW 8086   1.751   0.117   3.522  0.1590  0.0616  0.3284
 2021SOL    HW2 8087   1.753   0.097   3.615  0.9374 -0.3519  0.2264
 2021SOL    HW3 8088   1.672   0.074   3.489 -1.1269  1.7253  1.1258
 2021SOL    MW4 8089   1.741   0.109   3.530  0.0920  0.2265  0.4201
 2022SOL     OW 8090   1.761   0.379   3.431  0.2916  0.5727  0.4459
 2022SOL    HW2 8091   1.759   0.286   3.450  0.7333  0.5981  0.6332
 2022SOL    HW3 8092   1.768   0.385   3.336 -0.2509  0.4211  0.3974
 2022SOL    MW4 8093   1.762   0.368   3.421  0.2783  0.5561  0.4642
 2023SOL     OW 8094   1.888   0.593   3.559 -0.1939 -0.3390  0.0198
 2023SOL    HW2 8095   1.956   0.627   3.501 -0.0804 -0.2350  0.2167
 2023SOL    HW3 8096   1.848   0.521   3.509 -0.4906  0.1286 -0.4270
 2023SOL    MW4 8097   1.892   0.588   3.544 -0.2181 -0.2636 -0.0132
 2024SOL     OW 8098   2.068   0.689   3.369  0.1095  0.3099  0.1875
 2024SOL    HW2 8099   2.137   0.745   3.405  0.6787  0.4542 -1.1072
 2024SOL    HW3 8100   2.056   0.720   3.280  0.0771 -1.3024 -0.3828
 2024SOL    MW4 8101   2.076   0.700   3.362  0.1803  0.1162 -0.0586
 2025SOL     OW 8102   1.747   0.824   3.559 -0.1621 -0.2864 -0.0872
 2025SOL    HW2 8103   1.788   0.738   3.567 -0.0454 -0.3307 -1.0641
 2025SOL    HW3 8104   1.686   0.814   3.486 -1.5666 -0.0840  1.0373
 2025SOL    MW4 8105   1.745   0.811   3.550 -0.3320 -0.2655 -0.0677
 2026SOL     OW 8106   1.769   1.080   3.421 -0.2269  0.2318 -0.2476
 2026SOL    HW2 8107   1.852   1.119   3.448 -0.3213  0.8536 -0.8272
 2026SOL    HW3 8108   1.773   0.990   3.454  1.2243 -0.1414 -1.3647
 2026SOL    MW4 8109   1.781   1.073   3.429 -0.0479  0.2646 -0.4715
 2027SOL     OW 8110   1.975   1.237   3.486  0.5208  0.2107  0.1084
 2027SOL    HW2 8111   1.981   1.256   3.580 -0.5801 -0.7633  0.3900
 2027SOL    HW3 8112   1.997   1.319   3.443  1.2833  0.5963  1.2208
 2027SOL    MW4 8113   1.979   1.250   3.493  0.4762  0.1331  0.2924
 2028SOL     OW 8114   2.023   1.514   3.412  0.2024 -0.0109 -0.0780
 2028SOL    HW2 8115   2.101   1.563   3.439 -0.0346 -0.7338  1.9776
 2028SOL    HW3 8116   1.950   1.563   3.449 -0.1393 -0.9301  0.4641
 2028SOL    MW4 8117   2.024   1.527   3.420  0.1260 -0.2275  0.2647
 2029SOL     OW 8118   1.785   1.654   3.524  0.1190 -0.1170  0.5819
 2029SOL    HW2 8119   1.789   1.745   3.493  0.1843  0.4037  2.0344
 2029SOL    HW3 8120   1.722   1.612   3.467  0.7930  0.6015 -0.7145
 2029SOL    MW4 8121   1.777   1.661   3.513  0.2165  0.0465  0.6025
 2030SOL     OW 8122   1.784   1.911   3.412  0.1066  0.4921  0.0703
 2030SOL    HW2 8123   1.872   1.939   3.437  0.6288  0.0619 -1.2254
 2030SOL    HW3 8124   1.788   1.902   3.317 -0.7569 -1.4926  0.1860
 2030SOL    MW4 8125   1.796   1.913   3.403  0.0615  0.1735 -0.0854
 2031SOL     OW 8126   2.016   2.045   3.515  0.1251  0.2303 -0.5283
 2031SOL    HW2 8127   2.102   2.020   3.480  0.1185  0.6782 -0.8724
 2031SOL    HW3 8128   2.000   2.132   3.478  1.1387  1.7425  2.3764
 2031SOL    MW4 8129   2.026   2.054   3.505  0.2580  0.4889 -0.1904
 2032SOL     OW 8130   2.004   2.297   3.394 -0.7334 -0.3286 -0.1837
 2032SOL    HW2 8131   2.078   2.339   3.439  0.1662 -0.8546 -1.1460
 2032SOL    HW3 8132   2.016   2.319   3.302 -1.8657 -0.3130 -0.3375
 2032SOL    MW4 8133   2.015   2.305   3.388 -0.7641 -0.3960 -0.3310
 2033SOL     OW 8134   1.779   2.425   3.514  0.1962 -0.3415  0.6416
 2033SOL    HW2 8135   1.853   2.379   3.475  0.1686 -0.7957  1.1131
 2033SOL    HW3 8136   1.702   2.374   3.485 -0.0565  0.9716 -1.0509
 2033SOL    MW4 8137   1.778   2.412   3.505  0.1592 -0.2281  0.4805
 2034SOL     OW 8138   1.808   2.672   3.374 -0.7534  0.0741 -0.0917
 2034SOL    HW2 8139   1.879   2.721   3.415 -2.3858  1.7337  0.7906
 2034SOL    HW3 8140   1.794   2.597   3.432 -0.2565  0.1406  0.1211
 2034SOL    MW4 8141   1.816   2.669   3.387 -0.9032  0.3018  0.0528
 2035SOL     OW 8142   2.009   2.817   3.493  0.4506 -0.1200  0.1358
 2035SOL    HW2 8143   2.031   2.827   3.586  1.1787  0.5203 -0.0996
 2035SOL    HW3 8144   1.999   2.907   3.461 -1.0349 -0.3587 -0.1216
 2035SOL    MW4 8145   2.011   2.830   3.501  0.3507 -0.0670  0.0708
 2036SOL     OW 8146   1.997   3.106   3.399 -0.2786  0.5422 -0.2942
 2036SOL    HW2 8147   2.080   3.142   3.431  0.1788 -0.8985  0.1623
 2036SOL    HW3 8148   1.930   3.165   3.435  0.1993 -1.1151  3.5981
 2036SOL    MW4 8149   1.999   3.119   3.408 -0.1552  0.1334  0.2796
 2037SOL     OW 8150   1.789   3.255   3.495  0.2218 -0.4060  0.3020
 2037SOL    HW2 8151   1.782   3.247   3.590  0.4123 -0.3321  0.3222
 2037SOL    HW3 8152   1.777   3.349   3.478 -0.3295 -0.4899  0.2089
 2037SOL    MW4 8153   1.786   3.266   3.505  0.1742 -0.4073  0.2924
 2038SOL     OW 8154   1.794   3.516   3.406  0.2747 -0.0858  0.4508
 2038SOL    HW2 8155   1.720   3.569   3.436 -0.3034 -0.4843 -0.2563
 2038SOL    HW3 8156   1.807   3.543   3.315  2.0213  1.1226  1.0453
 2038SOL    MW4 8157   1.786   3.526   3.398  0.4289  0.0211  0.4360
 2039SOL     OW 8158   2.040   3.637   3.495  0.2871 -0.3182  0.3906
 2039SOL    HW2 8159   2.107   3.579   3.457 -0.2895 -0.9268  0.2873
 2039SOL    HW3 8160   1.957   3.590   3.481 -0.3236  1.0180 -0.6661
 2039SOL    MW4 8161   2.038   3.623   3.488  0.1304 -0.2222  0.2375
 2040SOL     OW 8162   2.033   3.884   3.378  0.3740  0.3438 -0.3766
 2040SOL    HW2 8163   1.958   3.935   3.409 -0.5661 -0.2423 -1.6030
 2040SOL    HW3 8164   2.026   3.801   3.424 -0.9001 -0.4476 -1.9028
 2040SOL    MW4 8165   2.022   3.880   3.388  0.0818  0.1621 -0.7398
 2041SOL     OW 8166   1.807   4.007   3.480  0.3065 -0.2264 -0.1197
 2041SOL    HW2 8167   1.813   4.001   3.575 -1.5866  0.8328  0.0799
 2041SOL    HW3 8168   1.718   3.978   3.460  0.2179  0.9366 -1.4428
 2041SOL    MW4 8169   1.796   4.002   3.490  0.0450  0.0668 -0.2679
 2042SOL     OW 8170   1.799   4.275   3.376 -0.3159  0.0345 -0.3197
 2042SOL    HW2 8171   1.803   4.186   3.411  0.3826 -0.4220 -1.5421
 2042SOL    HW3 8172   1.783   4.263   3.283  0.7365  1.1760 -0.6558
 2042SOL    MW4 8173   1.797   4.262   3.369 -0.0849  0.1248 -0.5253
 2043SOL     OW 8174   2.027   4.398   3.503 -0.0522  0.0954  0.1851
 2043SOL    HW2 8175   1.950   4.346   3.477  0.2971 -0.9313  1.1763
 2043SOL    HW3 8176   2.005   4.488   3.477 -0.5174 -0.5827 -1.8951
 2043SOL    MW4 8177   2.014   4.403   3.496 -0.0675 -0.1295  0.0414
 2044SOL     OW 8178   2.403   0.039   3.445  0.1395  0.1934  0.4417
 2044SOL    HW2 8179   2.420  -0.049   3.477  1.5476  0.2047 -0.2255
 2044SOL    HW3 8180   2.411   0.032   3.350 -1.3490  0.7101  0.2611
 2044SOL    MW4 8181   2.406   0.026   3.437  0.1289  0.2631  0.3298
 2045SOL     OW 8182   2.156   0.156   3.505 -0.0549 -0.1136 -0.3227
 2045SOL    HW2 8183   2.153   0.246   3.471  1.7912 -0.0422 -0.3818
 2045SOL    HW3 8184   2.246   0.128   3.488 -0.7902 -2.2083 -0.8914
 2045SOL    MW4 8185   2.168   0.164   3.498  0.0917 -0.3805 -0.4055
 2046SOL     OW 8186   2.173   0.419   3.391  0.0136 -0.3563 -0.0799
 2046SOL    HW2 8187   2.261   0.437   3.424  0.7199 -1.0470 -1.5279
 2046SOL    HW3 8188   2.129   0.504   3.391  1.1408  0.2379 -0.6710
 2046SOL    MW4 8189   2.179   0.432   3.395  0.2555 -0.3690 -0.3489
 2047SOL     OW 8190   2.439   0.484   3.499 -0.4719 -0.0537  0.0055
 2047SOL    HW2 8191   2.522   0.443   3.476 -0.8044 -0.4775 -0.4630
 2047SOL    HW3 8192   2.443   0.571   3.458 -0.8257 -0.5914 -1.2078
 2047SOL    MW4 8193   2.450   0.490   3.490 -0.5624 -0.1805 -0.2164
 2048SOL     OW 8194   2.463   0.732   3.381  0.1350 -0.2464  0.0295
 2048SOL    HW2 8195   2.547   0.767   3.410  0.4157  0.1028 -1.1625
 2048SOL    HW3 8196   2.472   0.723   3.286 -1.0264 -0.6047 -0.0618
 2048SOL    MW4 8197   2.475   0.736   3.372  0.0188 -0.2476 -0.1398
 2049SOL     OW 8198   2.237   0.880   3.475  0.3171  0.6900  0.2571
 2049SOL    HW2 8199   2.227   0.971   3.445 -1.4734  0.3467 -0.2371
 2049SOL    HW3 8200   2.321   0.852   3.438  0.3936  1.8079 -0.4437
 2049SOL    MW4 8201   2.247   0.889   3.466  0.0910  0.7922  0.0995
 2050SOL     OW 8202   2.207   1.149   3.405  0.0449 -0.6551  0.1053
 2050SOL    HW2 8203   2.279   1.199   3.444  0.4178  0.0371 -1.4494
 2050SOL    HW3 8204   2.132   1.165   3.463  0.2587  1.4187 -0.1681
 2050SOL    MW4 8205   2.206   1.158   3.418  0.1223 -0.2902 -0.1359
 2051SOL     OW 8206   2.451   1.248   3.499  0.5820  0.2426 -0.2703
 2051SOL    HW2 8207   2.465   1.252   3.594  0.1694 -0.0823 -0.1954
 2051SOL    HW3 8208   2.536   1.221   3.464  0.1986 -1.6262  0.1827
 2051SOL    MW4 8209   2.464   1.245   3.507  0.4770 -0.0468 -0.2006
 2052SOL     OW 8210   2.464   1.511   3.400  0.4262  0.1997  0.4200
 2052SOL    HW2 8211   2.467   1.416   3.413  0.1821  0.5349  3.1424
 2052SOL    HW3 8212   2.470   1.522   3.305  1.9056 -2.4854  0.1435
 2052SOL    MW4 8213   2.465   1.500   3.389  0.5892 -0.1104  0.7427
 2053SOL     OW 8214   2.229   1.681   3.489 -0.1275 -0.0271 -0.2189
 2053SOL    HW2 8215   2.236   1.691   3.584  1.7060  1.9383 -0.5326
 2053SOL    HW3 8216   2.303   1.625   3.465 -1.2968 -1.5467 -0.3762
 2053SOL    MW4 8217   2.240   1.675   3.498 -0.0399  0.0317 -0.2810
 2054SOL     OW 8218   2.237   1.934   3.394 -0.1652  0.0735  0.3482
 2054SOL    HW2 8219   2.225   1.842   3.416 -0.5221 -0.3583 -1.5479
 2054SOL    HW3 8220   2.234   1.936   3.298 -0.7110  2.1331  0.3899
 2054SOL    MW4 8221   2.235   1.922   3.384 -0.2843  0.2883  0.1035
 2055SOL     OW 8222   2.467   2.074   3.456  0.0546  0.0800 -0.4696
 2055SOL    HW2 8223   2.470   2.066   3.551 -0.8468  1.4001 -0.3068
 2055SOL    HW3 8224   2.395   2.017   3.430 -0.2488  0.3665 -0.2683
 2055SOL    MW4 8225   2.458   2.065   3.465 -0.1044  0.2920 -0.4216
 2056SOL     OW 8226   2.451   2.337   3.390 -0.8066  0.5074 -0.0871
 2056SOL    HW2 8227   2.505   2.379   3.457  2.5889 -1.3225 -1.5618
 2056SOL    HW3 8228   2.447   2.245   3.416 -1.3688  0.2146 -1.1726
 2056SOL    MW4 8229   2.458   2.330   3.403 -0.4328  0.2274 -0.4249
 2057SOL     OW 8230   2.222   2.421   3.504  0.1278 -0.3970 -0.0397
 2057SOL    HW2 8231   2.211   2.512   3.477 -0.4929 -0.3277  0.4212
 2057SOL    HW3 8232   2.306   2.395   3.468  0.5411  0.5172  0.2341
 2057SOL    MW4 8233   2.231   2.430   3.496  0.1004 -0.2672  0.0573
 2058SOL     OW 8234   2.232   2.683   3.383 -0.1234 -0.5952 -0.8901
 2058SOL    HW2 8235   2.169   2.746   3.418  1.5453  1.0625 -0.7934
 2058SOL    HW3 8236   2.232   2.699   3.289  0.1813 -0.5695 -0.8851
 2058SOL    MW4 8237   2.224   2.694   3.375  0.1370 -0.3731 -0.8767
 2059SOL     OW 8238   2.437   2.818   3.515 -0.4312  0.1539  0.3894
 2059SOL    HW2 8239   2.451   2.904   3.476 -0.7993  0.6365  1.3115
 2059SOL    HW3 8240   2.379   2.773   3.454  0.8580  0.0590 -0.7786
 2059SOL    MW4 8241   2.431   2.823   3.502 -0.3096  0.2051  0.3570
 2060SOL     OW 8242   2.480   3.071   3.431  0.6289  0.2000 -0.3180
 2060SOL    HW2 8243   2.550   3.136   3.436  0.9851 -0.2643  1.3219
 2060SOL    HW3 8244   2.464   3.059   3.338  1.1088  2.0441 -0.6486
 2060SOL    MW4 8245   2.487   3.078   3.420  0.7392  0.3820 -0.1453
 2061SOL     OW 8246   2.238   3.229   3.485  0.0928  0.1865 -0.2565
 2061SOL    HW2 8247   2.242   3.231   3.581  0.5717 -0.3407 -0.2602
 2061SOL    HW3 8248   2.327   3.203   3.458 -0.1776 -0.1686 -0.8205
 2061SOL    MW4 8249   2.250   3.226   3.494  0.1203  0.0701 -0.3314
 2062SOL     OW 8250   2.234   3.486   3.378 -0.0822  0.0115  0.2343
 2062SOL    HW2 8251   2.223   3.396   3.408  1.1135 -0.6762 -1.3332
 2062SOL    HW3 8252   2.238   3.479   3.282 -1.8222  1.9284 -0.0164
 2062SOL    MW4 8253   2.233   3.473   3.369 -0.1540  0.1737 -0.0056
 2063SOL     OW 8254   2.461   3.624   3.520  0.2164  0.0137 -0.2083
 2063SOL    HW2 8255   2.449   3.711   3.483  2.4401 -0.0914 -1.2104
 2063SOL    HW3 8256   2.390   3.572   3.482  0.7000  0.6461 -1.9851
 2063SOL    MW4 8257   2.450   3.628   3.510  0.5736  0.0833 -0.5749
 2064SOL     OW 8258   2.443   3.891   3.419  0.1552 -0.1705  0.2015
 2064SOL    HW2 8259   2.515   3.943   3.454  0.3086  0.0636 -0.4544
 2064SOL    HW3 8260   2.368   3.913   3.474  0.3395  0.3555  0.2408
 2064SOL    MW4 8261   2.443   3.901   3.431  0.1998 -0.0702  0.1201
 2065SOL     OW 8262   2.216   4.024   3.553  0.1476  0.1080 -0.3100
 2065SOL    HW2 8263   2.236   4.105   3.505 -1.0828  0.0779 -0.8950
 2065SOL    HW3 8264   2.164   3.972   3.492  0.7451 -1.0461  0.1417
 2065SOL    MW4 8265   2.212   4.028   3.539  0.0641 -0.0482 -0.3276
 2066SOL     OW 8266   2.253   4.279   3.417 -0.5112 -0.5564  0.1174
 2066SOL    HW2 8267   2.178   4.330   3.447 -1.5077 -1.0555 -1.4496
 2066SOL    HW3 8268   2.238   4.268   3.323  1.4760 -0.7636 -0.1841
 2066SOL    MW4 8269   2.241   4.284   3.408 -0.3805 -0.6496 -0.1291
 2067SOL     OW 8270   2.442   4.450   3.520 -0.0402 -0.1619  0.2772
 2067SOL    HW2 8271   2.451   4.436   3.615 -1.1073 -0.9701  0.2700
 2067SOL    HW3 8272   2.380   4.383   3.492  0.3212  0.0321 -1.0157
 2067SOL    MW4 8273   2.435   4.439   3.529 -0.1333 -0.2430  0.1057
 2068SOL     OW 8274   2.931   4.665   3.414 -0.3367 -0.0152 -0.4960
 2068SOL    HW2 8275   2.839   4.676   3.438  0.0488  2.4573 -0.0200
 2068SOL    HW3 8276   2.929   4.653   3.319 -1.0977  0.6958 -0.5798
 2068SOL    MW4 8277   2.918   4.665   3.405 -0.3862  0.4048 -0.4442
 2069SOL     OW 8278   2.664   0.088   3.508  0.4044  0.0807  0.6165
 2069SOL    HW2 8279   2.670   0.179   3.478  0.9740 -0.4302 -0.8941
 2069SOL    HW3 8280   2.574   0.062   3.488  0.8052 -0.2847 -0.8057
 2069SOL    MW4 8281   2.653   0.096   3.501  0.5324 -0.0349  0.2295
 2070SOL     OW 8282   2.670   0.360   3.403  0.1157  0.1203 -0.3390
 2070SOL    HW2 8283   2.720   0.432   3.443  1.9194 -0.7370 -0.9746
 2070SOL    HW3 8284   2.688   0.367   3.309 -2.6382  1.0231 -0.8313
 2070SOL    MW4 8285   2.679   0.370   3.396 -0.0096  0.1263 -0.4878
 2071SOL     OW 8286   2.878   0.510   3.532  0.6346 -0.1781  0.2909
 2071SOL    HW2 8287   2.908   0.520   3.623 -1.2731 -0.2146  0.9525
 2071SOL    HW3 8288   2.899   0.594   3.491 -2.0647  1.3636  1.8803
 2071SOL    MW4 8289   2.885   0.522   3.539  0.0267  0.0205  0.5879
 2072SOL     OW 8290   2.978   0.760   3.455 -0.5165  0.6284 -0.6770
 2072SOL    HW2 8291   3.054   0.800   3.497 -0.1176  0.2870 -1.0674
 2072SOL    HW3 8292   2.903   0.806   3.492 -0.0577  1.8329 -1.2075
 2072SOL    MW4 8293   2.978   0.771   3.465 -0.4033  0.7423 -0.7985
 2073SOL     OW 8294   2.716   0.842   3.497  0.4370  0.4098  0.0397
 2073SOL    HW2 8295   2.700   0.836   3.591 -0.4857 -0.7055 -0.1699
 2073SOL    HW3 8296   2.723   0.935   3.479 -1.3007  0.7195  0.9091
 2073SOL    MW4 8297   2.715   0.853   3.507  0.0860  0.3035  0.1267
 2074SOL     OW 8298   2.693   1.104   3.407  0.2316  0.0543  0.1542
 2074SOL    HW2 8299   2.778   1.139   3.432  0.8303 -0.9020 -0.4768
 2074SOL    HW3 8300   2.694   1.105   3.311  0.6650 -2.5488  0.0896
 2074SOL    MW4 8301   2.705   1.109   3.397  0.3678 -0.4153  0.0625
 2075SOL     OW 8302   2.922   1.255   3.476 -0.0442  0.1919  0.3920
 2075SOL    HW2 8303   2.930   1.272   3.570  0.8590  1.5042  0.0976
 2075SOL    HW3 8304   3.005   1.216   3.452 -0.9479 -1.8389  0.4544
 2075SOL    MW4 8305   2.934   1.252   3.485 -0.0443  0.0971  0.3614
 2076SOL     OW 8306   2.923   1.509   3.375 -0.1949  0.0769 -0.0110
 2076SOL    HW2 8307   2.852   1.559   3.415 -0.0853  0.5703 -0.4306
 2076SOL    HW3 8308   2.914   1.421   3.411 -0.2366  0.4582  0.9348
 2076SOL    MW4 8309   2.913   1.504   3.385 -0.1860  0.1923  0.0584
 2077SOL     OW 8310   2.710   1.632   3.471 -0.0981  0.6517 -0.1486
 2077SOL    HW2 8311   2.688   1.717   3.434 -0.9393  0.6608  0.3646
 2077SOL    HW3 8312   2.626   1.586   3.479  0.2902 -0.0561 -0.0034
 2077SOL    MW4 8313   2.696   1.637   3.467 -0.1578  0.5596 -0.0618
 2078SOL     OW 8314   2.694   1.912   3.374 -0.8044 -0.2838 -0.2861
 2078SOL    HW2 8315   2.614   1.958   3.397  0.2996  1.6403 -0.1370
 2078SOL    HW3 8316   2.700   1.919   3.279 -0.4877  0.1247 -0.2356
 2078SOL    MW4 8317   2.685   1.919   3.364 -0.6169  0.0239 -0.2598
 2079SOL     OW 8318   2.897   2.079   3.489 -0.1787  0.1543  0.0695
 2079SOL    HW2 8319   2.904   2.076   3.585 -2.1134  0.2765  0.2248
 2079SOL    HW3 8320   2.821   2.025   3.468 -0.2513  0.7822 -1.3479
 2079SOL    MW4 8321   2.888   2.072   3.499 -0.4435  0.2533 -0.0970
 2080SOL     OW 8322   2.882   2.352   3.413  0.2435 -0.4656 -0.1663
 2080SOL    HW2 8323   2.885   2.261   3.443 -0.7300 -0.3923  0.1814
 2080SOL    HW3 8324   2.887   2.347   3.318  3.1172 -0.7247 -0.0436
 2080SOL    MW4 8325   2.883   2.340   3.405  0.4942 -0.4901 -0.1043
 2081SOL     OW 8326   2.649   2.442   3.564  0.1801  0.2103  0.0493
 2081SOL    HW2 8327   2.668   2.425   3.656 -0.5454  0.2835  0.2151
 2081SOL    HW3 8328   2.725   2.408   3.517  0.4032 -0.1244  0.6521
 2081SOL    MW4 8329   2.662   2.435   3.570  0.1138  0.1758  0.1507
 2082SOL     OW 8330   2.661   2.692   3.425 -0.0928  0.1949  0.2741
 2082SOL    HW2 8331   2.658   2.611   3.477  1.9366  1.1476  1.9477
 2082SOL    HW3 8332   2.582   2.740   3.453 -0.7570 -0.7404  0.0349
 2082SOL    MW4 8333   2.650   2.688   3.436  0.0873  0.1972  0.4633
 2083SOL     OW 8334   2.907   2.851   3.502  0.0306 -0.5736  0.0040
 2083SOL    HW2 8335   2.902   2.845   3.597 -0.5247 -1.5013 -0.0728
 2083SOL    HW3 8336   2.837   2.793   3.471  0.9510 -1.1797 -0.9735
 2083SOL    MW4 8337   2.897   2.842   3.510  0.0788 -0.7759 -0.1351
 2084SOL     OW 8338   2.892   3.112   3.408 -0.3146  0.7511  0.0250
 2084SOL    HW2 8339   2.878   3.032   3.458 -1.8477  1.1665  0.3010
 2084SOL    HW3 8340   2.897   3.083   3.317 -0.3906  0.3021  0.1624
 2084SOL    MW4 8341   2.891   3.098   3.402 -0.5269  0.7467  0.0795
 2085SOL     OW 8342   2.671   3.280   3.486 -0.2456  0.6415 -0.0803
 2085SOL    HW2 8343   2.662   3.278   3.581  0.9280  0.5681  0.0344
 2085SOL    HW3 8344   2.745   3.222   3.467 -0.1815  1.0078 -1.0008
 2085SOL    MW4 8345   2.680   3.272   3.496 -0.0823  0.6801 -0.1866
 2086SOL     OW 8346   2.671   3.523   3.359 -0.1911  0.3146 -0.2933
 2086SOL    HW2 8347   2.688   3.439   3.400  0.2682  0.5386 -0.0190
 2086SOL    HW3 8348   2.595   3.558   3.405 -1.2000 -0.5375 -1.2948
 2086SOL    MW4 8349   2.663   3.517   3.370 -0.2636  0.2317 -0.3893
 2087SOL     OW 8350   2.882   3.638   3.482 -0.1061  0.0147 -0.2158
 2087SOL    HW2 8351   2.895   3.724   3.441  0.3908 -0.6594 -1.5048
 2087SOL    HW3 8352   2.811   3.598   3.431  0.1282 -0.6009 -0.0634
 2087SOL    MW4 8353   2.874   3.644   3.470 -0.0096 -0.1555 -0.3658
 2088SOL     OW 8354   2.904   3.896   3.402 -0.3368  0.2474  0.2664
 2088SOL    HW2 8355   2.973   3.925   3.461 -0.0675  0.8234 -0.3213
 2088SOL    HW3 8356   2.826   3.944   3.431 -0.2883  0.2512  0.3894
 2088SOL    MW4 8357   2.903   3.906   3.414 -0.2949  0.3239  0.2051
 2089SOL     OW 8358   2.673   4.028   3.493  0.1580 -0.1112 -0.2669
 2089SOL    HW2 8359   2.677   4.036   3.588  1.6444 -0.5663 -0.2681
 2089SOL    HW3 8360   2.672   4.118   3.461  0.6060  0.0452  0.1579
 2089SOL    MW4 8361   2.674   4.041   3.501  0.4132 -0.1506 -0.2110
 2090SOL     OW 8362   2.651   4.285   3.403 -0.1082  0.0005  0.1469
 2090SOL    HW2 8363   2.734   4.324   3.431 -0.0908  0.9665 -1.2397
 2090SOL    HW3 8364   2.584   4.349   3.430 -0.3914 -0.6006  0.9199
 2090SOL    MW4 8365   2.653   4.299   3.411 -0.1433  0.0486  0.0659
 2091SOL     OW 8366   2.893   4.407   3.478 -0.1791 -0.0460  0.0631
 2091SOL    HW2 8367   2.910   4.427   3.570  1.9212 -0.3278 -0.2414
 2091SOL    HW3 8368   2.910   4.489   3.432  3.3422 -1.0295 -0.5724
 2091SOL    MW4 8369   2.897   4.420   3.484  0.5626 -0.2129 -0.0609
 2092SOL     OW 8370   3.350   4.639   3.395 -0.2364  0.1332  0.1081
 2092SOL    HW2 8371   3.280   4.694   3.431 -0.7887 -1.2788  1.2465
 2092SOL    HW3 8372   3.337   4.643   3.301  0.5118  2.9612  0.0810
 2092SOL    MW4 8373   3.339   4.647   3.388 -0.2105  0.3200  0.2547
 2093SOL     OW 8374   3.162   0.133   3.494  0.3156  0.0881 -0.1084
 2093SOL    HW2 8375   3.153   0.217   3.449 -0.1002  0.1259  0.0450
 2093SOL    HW3 8376   3.081   0.086   3.472  0.4314 -0.1707  0.0202
 2093SOL    MW4 8377   3.150   0.138   3.485  0.2760  0.0589 -0.0712
 2094SOL     OW 8378   3.116   0.394   3.411 -0.2946  0.3043  0.1303
 2094SOL    HW2 8379   3.036   0.430   3.447 -0.1574  0.5434  0.1956
 2094SOL    HW3 8380   3.106   0.403   3.316 -0.6951 -0.4107  0.1063
 2094SOL    MW4 8381   3.104   0.400   3.403 -0.3293  0.2415  0.1358
 2095SOL     OW 8382   3.355   0.484   3.538  0.4599 -0.0549 -0.3032
 2095SOL    HW2 8383   3.332   0.497   3.630  1.1962  0.9899 -0.2579
 2095SOL    HW3 8384   3.276   0.449   3.498 -0.4192  1.0984  0.3853
 2095SOL    MW4 8385   3.342   0.481   3.545  0.4410  0.2351 -0.2064
 2096SOL     OW 8386   3.385   0.719   3.393 -0.1573  0.4543 -0.4210
 2096SOL    HW2 8387   3.453   0.771   3.436  0.6205 -0.1004 -0.9649
 2096SOL    HW3 8388   3.373   0.643   3.450  0.4896 -0.0115 -0.8975
 2096SOL    MW4 8389   3.392   0.716   3.406  0.0306  0.3197 -0.5556
 2097SOL     OW 8390   3.202   0.893   3.545  0.4078  0.5453  0.1974
 2097SOL    HW2 8391   3.168   0.960   3.485  0.3240  0.1703 -0.1761
 2097SOL    HW3 8392   3.258   0.838   3.490  0.1908  0.0925  0.4264
 2097SOL    MW4 8393   3.205   0.895   3.529  0.3681  0.4361  0.1783
 2098SOL     OW 8394   3.154   1.128   3.401  0.0278  0.4497  0.4630
 2098SOL    HW2 8395   3.237   1.168   3.426  0.1664  0.1139  0.5439
 2098SOL    HW3 8396   3.160   1.119   3.306  0.3830 -0.2380  0.5491
 2098SOL    MW4 8397   3.166   1.132   3.392  0.0929  0.3146  0.4851
 2099SOL     OW 8398   3.386   1.262   3.496  0.1968 -0.0475  0.1970
 2099SOL    HW2 8399   3.468   1.232   3.456  0.0406  0.9482 -0.8953
 2099SOL    HW3 8400   3.371   1.348   3.457 -0.5218  0.4712  1.6259
 2099SOL    MW4 8401   3.394   1.269   3.485  0.0814  0.1523  0.2414
 2100SOL     OW 8402   3.359   1.531   3.405  0.0681  0.0989  0.3267
 2100SOL    HW2 8403   3.436   1.566   3.450  0.2914  1.9088 -1.4190
 2100SOL    HW3 8404   3.286   1.580   3.443 -0.0755 -0.5054  0.8470
 2100SOL    MW4 8405   3.359   1.542   3.416  0.0786  0.2580  0.1651
 2101SOL     OW 8406   3.125   1.671   3.498 -0.3104  0.0948 -0.4863
 2101SOL    HW2 8407   3.114   1.759   3.460 -0.1824 -0.0797 -0.9311
 2101SOL    HW3 8408   3.057   1.618   3.456  1.8753 -0.8912 -2.9639
 2101SOL    MW4 8409   3.115   1.676   3.487 -0.0051 -0.0584 -0.8719
 2102SOL     OW 8410   3.113   1.947   3.421 -0.0018  0.0272  0.2319
 2102SOL    HW2 8411   3.029   1.989   3.441  0.5807  0.8261  1.0481
 2102SOL    HW3 8412   3.123   1.961   3.327  0.0409  1.4928  0.4367
 2102SOL    MW4 8413   3.103   1.955   3.411  0.0807  0.3260  0.3666
 2103SOL     OW 8414   3.364   2.065   3.494  0.5962 -0.0076 -0.1626
 2103SOL    HW2 8415   3.368   2.154   3.459  1.0414 -0.1187 -0.4057
 2103SOL    HW3 8416   3.281   2.030   3.463  0.1599  0.5166  0.4058
 2103SOL    MW4 8417   3.354   2.072   3.485  0.5974  0.0469 -0.1197
 2104SOL     OW 8418   3.357   2.308   3.383  0.1581 -0.1109 -0.1709
 2104SOL    HW2 8419   3.431   2.366   3.401  0.0980 -0.0398 -0.1482
 2104SOL    HW3 8420   3.280   2.360   3.409  0.1483 -0.4834  0.5506
 2104SOL    MW4 8421   3.356   2.323   3.389  0.1489 -0.1507 -0.0727
 2105SOL     OW 8422   3.131   2.464   3.460 -0.1075  0.4395  0.5980
 2105SOL    HW2 8423   3.132   2.555   3.430 -0.8977 -0.1680 -1.4158
 2105SOL    HW3 8424   3.039   2.437   3.450  0.1318 -0.5751  1.1359
 2105SOL    MW4 8425   3.119   2.473   3.454 -0.1802  0.2255  0.4033
 2106SOL     OW 8426   3.121   2.727   3.381 -0.2372 -0.1836 -0.3755
 2106SOL    HW2 8427   3.196   2.769   3.421 -0.4861  0.1288 -0.2326
 2106SOL    HW3 8428   3.045   2.761   3.429 -0.4250 -1.0176 -0.0619
 2106SOL    MW4 8429   3.121   2.737   3.392 -0.2948 -0.2524 -0.3153
 2107SOL     OW 8430   3.345   2.863   3.530  0.4065  0.2883  0.3444
 2107SOL    HW2 8431   3.429   2.826   3.504  0.4729  1.0175 -0.4934
 2107SOL    HW3 8432   3.347   2.953   3.497 -1.0175  0.0738 -0.3662
 2107SOL    MW4 8433   3.356   2.870   3.523  0.2273  0.3562  0.1401
 2108SOL     OW 8434   3.368   3.113   3.433 -0.0219 -0.4398  0.2241
 2108SOL    HW2 8435   3.435   3.158   3.484 -0.8167 -0.9069  1.6987
 2108SOL    HW3 8436   3.286   3.154   3.459 -0.3163  0.1585 -1.6030
 2108SOL    MW4 8437   3.366   3.124   3.443 -0.1656 -0.4225  0.1776
 2109SOL     OW 8438   3.120   3.221   3.514 -0.1097  0.0191 -0.0603
 2109SOL    HW2 8439   3.113   3.309   3.478  1.6096 -0.6881 -2.2676
 2109SOL    HW3 8440   3.054   3.170   3.467  2.0641 -0.8830 -2.2620
 2109SOL    MW4 8441   3.111   3.226   3.503  0.4039 -0.1933 -0.6420
 2110SOL     OW 8442   3.102   3.489   3.428 -0.8452 -0.2094  0.3023
 2110SOL    HW2 8443   3.022   3.540   3.442  0.0123  1.1563  0.3605
 2110SOL    HW3 8444   3.111   3.485   3.333 -0.5597  0.3441  0.3002
 2110SOL    MW4 8445   3.092   3.495   3.417 -0.6944  0.0438  0.3097
 2111SOL     OW 8446   3.355   3.566   3.514  0.1121 -0.6910 -0.0137
 2111SOL    HW2 8447   3.359   3.656   3.480 -0.2873 -0.5831  0.2214
 2111SOL    HW3 8448   3.266   3.537   3.493 -0.3899 -0.3641  1.6051
 2111SOL    MW4 8449   3.344   3.574   3.506 -0.0068 -0.6336  0.2309
 2112SOL     OW 8450   3.347   3.826   3.437 -0.1987 -0.4839  0.5564
 2112SOL    HW2 8451   3.434   3.860   3.457  0.4953 -1.6998 -0.3120
 2112SOL    HW3 8452   3.287   3.885   3.481  1.0786  0.3192  1.2337
 2112SOL    MW4 8453   3.351   3.838   3.445  0.0614 -0.5384  0.5312
 2113SOL     OW 8454   3.148   3.990   3.533  0.3459  0.1631 -0.1146
 2113SOL    HW2 8455   3.130   4.004   3.626 -2.5635 -0.4478 -0.5271
 2113SOL    HW3 8456   3.135   4.076   3.493  1.3064  0.3618 -0.0109
 2113SOL    MW4 8457   3.144   4.003   3.540  0.0887  0.1088 -0.1553
 2114SOL     OW 8458   3.118   4.241   3.405  0.0093  0.0201 -0.6150
 2114SOL    HW2 8459   3.196   4.291   3.432 -0.3701 -0.0802  0.6697
 2114SOL    HW3 8460   3.044   4.297   3.427 -0.2851  0.4193 -2.4786
 2114SOL    MW4 8461   3.119   4.255   3.411 -0.0796  0.0596 -0.6914
 2115SOL     OW 8462   3.349   4.392   3.508 -0.4758  0.3222  0.1134
 2115SOL    HW2 8463   3.360   4.399   3.602  1.6922  1.5072 -0.1954
 2115SOL    HW3 8464   3.352   4.483   3.477 -0.2198 -0.1110 -1.1636
 2115SOL    MW4 8465   3.351   4.405   3.516 -0.1560  0.4214 -0.0958
 2116SOL     OW 8466   3.798   4.625   3.417 -0.3132 -0.2908  0.4282
 2116SOL    HW2 8467   3.722   4.676   3.445  0.2350  1.0293 -0.3872
 2116SOL    HW3 8468   3.792   4.624   3.321 -0.1203 -1.4603  0.4298
 2116SOL    MW4 8469   3.787   4.632   3.408 -0.2154 -0.2709  0.3209
 2117SOL     OW 8470   3.593   0.115   3.530  0.0548  0.1181  0.2389
 2117SOL    HW2 8471   3.591   0.200   3.486  1.9909  0.3999  0.6581
 2117SOL    HW3 8472   3.514   0.070   3.499  0.9386  0.6045 -2.8957
 2117SOL    MW4 8473   3.582   0.120   3.520  0.4269  0.2194 -0.1194
 2118SOL     OW 8474   3.565   0.359   3.418  0.3121 -0.4158 -0.5464
 2118SOL    HW2 8475   3.645   0.407   3.439  0.2945 -0.5205 -0.2487
 2118SOL    HW3 8476   3.498   0.398   3.474 -0.3325  1.2028 -2.3907
 2118SOL    MW4 8477   3.566   0.371   3.428  0.2247 -0.2161 -0.7505
 2119SOL     OW 8478   3.784   0.509   3.499  0.1320  0.0653  0.0093
 2119SOL    HW2 8479   3.772   0.512   3.594  0.4758  0.0547  0.0539
 2119SOL    HW3 8480   3.854   0.445   3.486  0.7539  0.7802 -0.1888
 2119SOL    MW4 8481   3.791   0.501   3.510  0.2594  0.1582 -0.0109
 2120SOL     OW 8482   3.801   0.775   3.386  0.2894 -0.3328 -0.3201
 2120SOL    HW2 8483   3.872   0.815   3.437  0.0182  0.4210 -0.5329
 2120SOL    HW3 8484   3.798   0.684   3.417 -0.1982  0.2303  1.3616
 2120SOL    MW4 8485   3.810   0.768   3.397  0.1893 -0.1591 -0.1263
 2121SOL     OW 8486   3.568   0.891   3.517  0.7962 -0.0577  0.1825
 2121SOL    HW2 8487   3.586   0.866   3.608 -0.0961  0.8289  0.6019
 2121SOL    HW3 8488   3.646   0.863   3.470  2.2812  1.5495  1.5924
 2121SOL    MW4 8489   3.581   0.884   3.523  0.8744  0.2713  0.4239
 2122SOL     OW 8490   3.609   1.170   3.414  0.2222 -0.7204 -0.8264
 2122SOL    HW2 8491   3.593   1.082   3.448 -1.0703 -1.0469 -2.2209
 2122SOL    HW3 8492   3.612   1.159   3.319 -1.6861  0.9706 -1.1218
 2122SOL    MW4 8493   3.607   1.157   3.406 -0.2001 -0.5404 -1.0494
 2123SOL     OW 8494   3.846   1.281   3.499  0.2383  0.2373 -0.2576
 2123SOL    HW2 8495   3.852   1.278   3.594  2.6458 -0.2418 -0.4052
 2123SOL    HW3 8496   3.767   1.231   3.478  0.5861 -1.0478  1.4032
 2123SOL    MW4 8497   3.836   1.274   3.508  0.6019  0.0045 -0.0580
 2124SOL     OW 8498   3.814   1.523   3.379  0.0427  0.1791 -0.7257
 2124SOL    HW2 8499   3.884   1.577   3.417  0.5099 -0.2457 -0.9874
 2124SOL    HW3 8500   3.830   1.435   3.413 -0.2706  0.0472 -0.9154
 2124SOL    MW4 8501   3.826   1.519   3.389  0.0630  0.1056 -0.7853
 2125SOL     OW 8502   3.589   1.641   3.506 -0.4571 -0.0114  0.1295
 2125SOL    HW2 8503   3.596   1.734   3.485  0.4888  0.2433  1.4677
 2125SOL    HW3 8504   3.662   1.600   3.459  0.0727  0.1723  0.7707
 2125SOL    MW4 8505   3.600   1.648   3.497 -0.2624  0.0464  0.3907
 2126SOL     OW 8506   3.590   1.912   3.411 -0.0276  0.0010  0.3120
 2126SOL    HW2 8507   3.668   1.961   3.435 -0.2760  0.3073  0.4971
 2126SOL    HW3 8508   3.517   1.968   3.438 -0.3308 -1.1467  1.9278
 2126SOL    MW4 8509   3.591   1.926   3.417 -0.1004 -0.1100  0.5496
 2127SOL     OW 8510   3.795   2.083   3.519 -0.4870 -0.2203 -0.6122
 2127SOL    HW2 8511   3.818   2.098   3.611  0.3061 -0.1672 -0.8091
 2127SOL    HW3 8512   3.877   2.052   3.479 -0.7666 -0.0269 -1.3483
 2127SOL    MW4 8513   3.809   2.081   3.526 -0.4192 -0.1878 -0.7353
 2128SOL     OW 8514   3.780   2.325   3.385  0.0951 -0.3709 -0.4531
 2128SOL    HW2 8515   3.865   2.363   3.407 -0.7485  1.4597 -0.2321
 2128SOL    HW3 8516   3.779   2.240   3.429  2.3875 -1.0812 -1.6947
 2128SOL    MW4 8517   3.791   2.319   3.394  0.2863 -0.2231 -0.5877
 2129SOL     OW 8518   3.561   2.455   3.477  0.0168  0.3665  0.0212
 2129SOL    HW2 8519   3.572   2.550   3.473  2.4314  0.0760 -0.6695
 2129SOL    HW3 8520   3.643   2.419   3.444 -1.1672 -1.9805 -0.5244
 2129SOL    MW4 8521   3.573   2.463   3.472  0.1791  0.0185 -0.1419
 2130SOL     OW 8522   3.565   2.719   3.433  0.1128 -0.3435  0.1711
 2130SOL    HW2 8523   3.647   2.748   3.472 -0.5501  0.8104  0.7111
 2130SOL    HW3 8524   3.581   2.723   3.339  0.7281 -0.2880  0.2765
 2130SOL    MW4 8525   3.578   2.723   3.426  0.1065 -0.1839  0.2563
 2131SOL     OW 8526   3.800   2.794   3.530  0.2902  0.1526 -0.3114
 2131SOL    HW2 8527   3.802   2.808   3.625  1.5893 -0.8063 -0.1873
 2131SOL    HW3 8528   3.812   2.881   3.493 -0.2438  0.5401  0.4055
 2131SOL    MW4 8529   3.802   2.807   3.538  0.3911  0.0772 -0.2004
 2132SOL     OW 8530   3.829   3.085   3.439  0.0661  0.0492  0.2117
 2132SOL    HW2 8531   3.899   3.135   3.480  0.3140 -0.4157  0.3615
 2132SOL    HW3 8532   3.843   3.097   3.345  1.0362 -0.9536  0.2073
 2132SOL    MW4 8533   3.840   3.093   3.432  0.2268 -0.1445  0.2309
 2133SOL     OW 8534   3.605   3.219   3.538  0.8487  0.0483  0.2872
 2133SOL    HW2 8535   3.611   3.303   3.492  1.3322 -0.1340  0.0175
 2133SOL    HW3 8536   3.683   3.170   3.510  1.0561 -0.1340  1.1501
 2133SOL    MW4 8537   3.616   3.224   3.528  0.9398  0.0002  0.3655
 2134SOL     OW 8538   3.602   3.480   3.416  0.3117 -0.1894  0.4519
 2134SOL    HW2 8539   3.521   3.519   3.450  0.5165 -0.1296  0.8717
 2134SOL    HW3 8540   3.590   3.480   3.321  0.3752  1.0288  0.4345
 2134SOL    MW4 8541   3.590   3.485   3.408  0.3471 -0.0208  0.5050
 2135SOL     OW 8542   3.835   3.605   3.532 -0.1328 -0.3756  0.0735
 2135SOL    HW2 8543   3.834   3.588   3.626  0.7003 -0.1483  0.1360
 2135SOL    HW3 8544   3.763   3.553   3.497  0.4768 -1.6471  0.6478
 2135SOL    MW4 8545   3.826   3.596   3.540  0.0575 -0.5134  0.1575
 2136SOL     OW 8546   3.810   3.860   3.392  0.1026  0.1537  0.0245
 2136SOL    HW2 8547   3.722   3.887   3.415  0.3041  0.1297  0.8529
 2136SOL    HW3 8548   3.814   3.768   3.418  0.7732  0.5019  1.1732
 2136SOL    MW4 8549   3.799   3.851   3.399  0.2177  0.1965  0.2854
 2137SOL     OW 8550   3.574   3.942   3.502  0.0070  0.1330  0.2179
 2137SOL    HW2 8551   3.595   3.957   3.594 -1.0426  0.8581  0.3479
 2137SOL    HW3 8552   3.555   4.029   3.467 -0.3535 -0.2261 -0.4925
 2137SOL    MW4 8553   3.574   3.955   3.510 -0.1791  0.1813  0.1413
 2138SOL     OW 8554   3.542   4.207   3.400 -0.5360  0.0506 -0.5894
 2138SOL    HW2 8555   3.470   4.264   3.429 -0.3262  1.1007 -2.0692
 2138SOL    HW3 8556   3.545   4.218   3.305  0.6467 -1.1058 -0.7036
 2138SOL    MW4 8557   3.533   4.216   3.392 -0.3522  0.0365 -0.7997
 2139SOL     OW 8558   3.774   4.352   3.479  0.0841 -0.2563  0.3897
 2139SOL    HW2 8559   3.688   4.318   3.453 -0.1217 -0.6795  1.5587
 2139SOL    HW3 8560   3.776   4.441   3.444 -0.0693 -0.8869 -1.2338
 2139SOL    MW4 8561   3.763   4.360   3.471  0.0367 -0.3953  0.3297
 2140SOL     OW 8562   4.250   4.625   3.337  0.4372  0.3175  0.1229
 2140SOL    HW2 8563   4.243   4.540   3.380  0.6487  0.6386  0.7938
 2140SOL    HW3 8564   4.325   4.667   3.379 -0.7296  1.5474  1.0214
 2140SOL    MW4 8565   4.259   4.620   3.348  0.3111  0.5221  0.3300
 2141SOL     OW 8566   4.051   0.064   3.488 -0.2712 -0.0446  0.1629
 2141SOL    HW2 8567   4.118   0.024   3.432  0.1326  0.5829  0.1864
 2141SOL    HW3 8568   3.968   0.029   3.455  0.1107 -1.3628  0.5716
 2141SOL    MW4 8569   4.049   0.054   3.476 -0.1675 -0.1357  0.2199
 2142SOL     OW 8570   3.987   0.325   3.413 -0.0065 -0.0101 -0.2147
 2142SOL    HW2 8571   4.019   0.242   3.448 -0.5162 -0.2125 -0.2203
 2142SOL    HW3 8572   3.990   0.314   3.318 -0.0636 -0.0206 -0.2154
 2142SOL    MW4 8573   3.992   0.313   3.406 -0.0813 -0.0382 -0.2155
 2143SOL     OW 8574   4.232   0.438   3.476 -0.5917 -0.2554  0.2955
 2143SOL    HW2 8575   4.215   0.528   3.448  0.8897 -0.5288 -1.6233
 2143SOL    HW3 8576   4.150   0.392   3.461 -0.8624  0.4179 -0.3154
 2143SOL    MW4 8577   4.219   0.444   3.470 -0.4320 -0.2026 -0.0383
 2144SOL     OW 8578   4.244   0.713   3.409  0.4757 -0.1263  0.3419
 2144SOL    HW2 8579   4.314   0.770   3.443 -0.2185  0.4316  0.8402
 2144SOL    HW3 8580   4.243   0.730   3.315 -0.1693  1.1892  0.5760
 2144SOL    MW4 8581   4.253   0.723   3.401  0.2990  0.1209  0.4385
 2145SOL     OW 8582   4.034   0.868   3.498 -0.1701  0.2354  0.1707
 2145SOL    HW2 8583   4.051   0.951   3.455  1.2749 -0.6856 -1.0883
 2145SOL    HW3 8584   4.102   0.809   3.465 -0.4344 -1.1232  1.9489
 2145SOL    MW4 8585   4.045   0.871   3.488 -0.0143 -0.0654  0.2392
 2146SOL     OW 8586   4.063   1.127   3.377 -0.8688 -0.2221  0.1207
 2146SOL    HW2 8587   4.141   1.165   3.417  0.0472  0.4514 -2.2482
 2146SOL    HW3 8588   3.991   1.180   3.410  0.1247  1.8623 -0.9741
 2146SOL    MW4 8589   4.064   1.139   3.387 -0.6169  0.1418 -0.3363
 2147SOL     OW 8590   4.258   1.251   3.525 -0.0863  0.2504 -0.0926
 2147SOL    HW2 8591   4.228   1.337   3.496 -1.0412  0.7392  2.2028
 2147SOL    HW3 8592   4.327   1.227   3.463 -0.4907  2.2172 -1.3502
 2147SOL    MW4 8593   4.263   1.259   3.513 -0.2656  0.5744  0.0443
 2148SOL     OW 8594   4.195   1.498   3.431  0.2360  0.0437  0.0246
 2148SOL    HW2 8595   4.126   1.564   3.442  0.5525  0.1185  1.5742
 2148SOL    HW3 8596   4.207   1.492   3.336 -2.1652 -0.2472 -0.2926
 2148SOL    MW4 8597   4.187   1.506   3.420 -0.0391  0.0152  0.1872
 2149SOL     OW 8598   3.986   1.700   3.495  0.1404  0.0757 -0.5580
 2149SOL    HW2 8599   4.016   1.702   3.586 -0.4113  0.6510 -0.3900
 2149SOL    HW3 8600   3.981   1.792   3.469  1.1373 -0.1059 -1.4484
 2149SOL    MW4 8601   3.990   1.712   3.503  0.1991  0.1276 -0.6533
 2150SOL     OW 8602   4.035   1.963   3.434 -0.0066  0.4452 -0.3612
 2150SOL    HW2 8603   4.121   1.980   3.472 -0.1170  2.0484 -0.8102
 2150SOL    HW3 8604   4.053   1.931   3.346  0.1394  0.2424 -0.2588
 2150SOL    MW4 8605   4.049   1.961   3.427 -0.0019  0.6299 -0.4069
 2151SOL     OW 8606   4.299   2.010   3.565  0.6092 -0.1499  0.2443
 2151SOL    HW2 8607   4.298   2.095   3.521 -1.5572  0.8596  2.1288
 2151SOL    HW3 8608   4.367   1.961   3.520  1.2670  2.2516 -1.5091
 2151SOL    MW4 8609   4.308   2.015   3.553  0.4102  0.3001  0.2616
 2152SOL     OW 8610   4.249   2.261   3.435  0.1059  0.0403  0.1542
 2152SOL    HW2 8611   4.179   2.311   3.478 -0.4596  0.7199 -1.5074
 2152SOL    HW3 8612   4.242   2.286   3.342  0.4462 -2.3962 -0.5537
 2152SOL    MW4 8613   4.239   2.271   3.428  0.0762 -0.1915 -0.1584
 2153SOL     OW 8614   4.033   2.420   3.505  0.3330  0.4658  0.2631
 2153SOL    HW2 8615   4.010   2.428   3.597 -0.1476 -1.2255  0.2972
 2153SOL    HW3 8616   4.047   2.510   3.476  0.2903  1.0233  1.9294
 2153SOL    MW4 8617   4.032   2.433   3.513  0.2640  0.3162  0.4875
 2154SOL     OW 8618   4.032   2.681   3.417  0.1596 -0.0094  0.3106
 2154SOL    HW2 8619   4.113   2.720   3.448  0.7928  0.1223 -1.4061
 2154SOL    HW3 8620   3.963   2.717   3.473  1.2776 -0.1247  1.7773
 2154SOL    MW4 8621   4.033   2.691   3.428  0.3906 -0.0072  0.2776
 2155SOL     OW 8622   4.249   2.809   3.537 -0.3572 -0.0031 -0.3186
 2155SOL    HW2 8623   4.246   2.803   3.632 -0.1419  0.4025 -0.2860
 2155SOL    HW3 8624   4.325   2.757   3.512 -0.2132  0.1735 -0.2460
 2155SOL    MW4 8625   4.259   2.802   3.546 -0.3098  0.0737 -0.3047
 2156SOL     OW 8626   4.279   3.075   3.409  0.1697  0.1366 -1.0313
 2156SOL    HW2 8627   4.263   2.988   3.445  0.5954  0.3936 -0.2111
 2156SOL    HW3 8628   4.282   3.062   3.315 -1.0109 -0.5382 -0.9795
 2156SOL    MW4 8629   4.277   3.062   3.402  0.0701  0.0815 -0.9162
 2157SOL     OW 8630   4.056   3.207   3.529  0.6971  0.2454  0.4821
 2157SOL    HW2 8631   4.050   3.286   3.476 -0.0141 -1.2917 -1.7912
 2157SOL    HW3 8632   4.133   3.161   3.495 -0.4298 -1.3146 -0.0346
 2157SOL    MW4 8633   4.066   3.211   3.517  0.4545 -0.1633  0.1140
 2158SOL     OW 8634   4.039   3.477   3.404 -0.3794  0.2162  0.5061
 2158SOL    HW2 8635   4.117   3.524   3.432 -1.3397  1.3640  1.2834
 2158SOL    HW3 8636   3.967   3.518   3.452 -1.3520 -1.4312  0.4998
 2158SOL    MW4 8637   4.040   3.489   3.414 -0.6344  0.1503  0.6078
 2159SOL     OW 8638   4.254   3.621   3.494 -0.0117 -0.1725 -0.1795
 2159SOL    HW2 8639   4.256   3.615   3.590  1.6474  0.7454 -0.1380
 2159SOL    HW3 8640   4.267   3.715   3.476 -0.9803 -0.2381 -1.2981
 2159SOL    MW4 8641   4.256   3.633   3.504  0.0794 -0.0600 -0.3216
 2160SOL     OW 8642   4.253   3.888   3.421  0.0455 -0.3451  0.0592
 2160SOL    HW2 8643   4.340   3.918   3.447  0.4179 -0.6718 -0.8160
 2160SOL    HW3 8644   4.258   3.877   3.327 -1.1549  0.3209 -0.0945
 2160SOL    MW4 8645   4.265   3.891   3.412 -0.0637 -0.3004 -0.0765
 2161SOL     OW 8646   4.020   3.994   3.533 -0.2538  0.4047 -0.0483
 2161SOL    HW2 8647   4.105   3.967   3.498  0.1358 -0.2273  1.3413
 2161SOL    HW3 8648   3.956   3.951   3.476  0.3565 -0.3084 -0.2114
 2161SOL    MW4 8649   4.023   3.985   3.521 -0.1219  0.2272  0.1135
 2162SOL     OW 8650   4.011   4.228   3.382 -0.3146 -0.7371 -0.3380
 2162SOL    HW2 8651   4.019   4.152   3.439  0.7193 -0.5679 -0.2516
 2162SOL    HW3 8652   3.937   4.277   3.418 -0.1799 -1.0433  0.3687
 2162SOL    MW4 8653   4.002   4.225   3.394 -0.1604 -0.7552 -0.2333
 2163SOL     OW 8654   4.232   4.362   3.471 -0.2331 -0.4637  0.4436
 2163SOL    HW2 8655   4.228   4.373   3.566 -1.6022 -1.4325  0.5161
 2163SOL    HW3 8656   4.157   4.305   3.450 -0.6505  0.7091 -1.3638
 2163SOL    MW4 8657   4.221   4.356   3.481 -0.4688 -0.4368  0.2147
 2164SOL     OW 8658   0.213   0.000   3.842  0.1499  0.4333 -0.0686
 2164SOL    HW2 8659   0.207  -0.004   3.938 -1.1168  1.7999 -0.0642
 2164SOL    HW3 8660   0.126   0.029   3.815  0.4640 -0.0904 -1.6513
 2164SOL    MW4 8661   0.200   0.003   3.851  0.0242  0.5445 -0.2768
 2165SOL     OW 8662   4.454   0.116   3.755 -0.1273  0.0886 -0.0319
 2165SOL    HW2 8663   4.463   0.205   3.789 -0.4822  0.5409 -1.1143
 2165SOL    HW3 8664   4.454   0.126   3.660 -0.7928 -1.0080 -0.1558
 2165SOL    MW4 8665   4.455   0.129   3.747 -0.2619  0.0036 -0.1911
 2166SOL     OW 8666   4.469   0.357   3.889 -0.1074 -0.2791 -0.0454
 2166SOL    HW2 8667   4.400   0.407   3.845 -0.6714  0.2224  1.3839
 2166SOL    HW3 8668   4.549   0.406   3.872 -0.7130  1.3999  1.7035
 2166SOL    MW4 8669   4.471   0.370   3.881 -0.2618  0.0086  0.3739
 2167SOL     OW 8670   0.212   0.516   3.793  0.0675  0.3192 -0.0697
 2167SOL    HW2 8671   0.203   0.609   3.814 -0.3902  0.4457 -0.8361
 2167SOL    HW3 8672   0.189   0.509   3.700  0.3027 -0.5261 -0.0709
 2167SOL    MW4 8673   0.208   0.527   3.784  0.0382  0.2243 -0.1710
 2168SOL     OW 8674   0.180   0.792   3.873  0.4232 -0.0666 -0.5693
 2168SOL    HW2 8675   0.203   0.797   3.965 -0.4416 -1.1491 -0.2783
 2168SOL    HW3 8676   0.098   0.840   3.866 -1.1357 -2.5439 -0.1641
 2168SOL    MW4 8677   0.172   0.799   3.884  0.1034 -0.5362 -0.4774
 2169SOL     OW 8678   4.423   0.874   3.745  0.1021 -0.4056  0.0390
 2169SOL    HW2 8679   4.373   0.817   3.803 -1.0438  0.1007 -0.4421
 2169SOL    HW3 8680   4.404   0.962   3.775  1.3382 -0.2372  0.3516
 2169SOL    MW4 8681   4.414   0.878   3.757  0.1140 -0.3166  0.0168
 2170SOL     OW 8682   4.469   1.125   3.856 -0.2632  0.0919 -0.0985
 2170SOL    HW2 8683   4.409   1.197   3.837  0.1710  0.7477  1.0042
 2170SOL    HW3 8684   4.555   1.158   3.829  0.1202  0.4355  1.5192
 2170SOL    MW4 8685   4.472   1.139   3.850 -0.1553  0.2238  0.2604
 2171SOL     OW 8686   0.224   1.224   3.745 -0.3998 -0.1510 -0.3028
 2171SOL    HW2 8687   0.226   1.313   3.780  1.2807 -0.2821 -0.0281
 2171SOL    HW3 8688   0.214   1.235   3.651 -1.9021  0.2734 -0.1124
 2171SOL    MW4 8689   0.223   1.237   3.737 -0.3763 -0.1123 -0.2415
 2172SOL     OW 8690   0.192   1.468   3.892  0.5543  0.3576  0.1716
 2172SOL    HW2 8691   0.180   1.466   3.987 -0.0935 -1.3168  0.0772
 2172SOL    HW3 8692   0.117   1.517   3.860  0.2560  0.0932  0.4561
 2172SOL    MW4 8693   0.181   1.474   3.901  0.4294  0.1018  0.1967
 2173SOL     OW 8694   4.466   1.629   3.798 -0.1911 -0.2558 -0.4563
 2173SOL    HW2 8695   4.483   1.720   3.823 -1.1443  0.2700 -1.6778
 2173SOL    HW3 8696   4.454   1.632   3.703 -0.1140 -1.6785 -0.5228
 2173SOL    MW4 8697   4.467   1.641   3.788 -0.3067 -0.3741 -0.6262
 2174SOL     OW 8698   0.005   1.891   3.911 -0.5832  0.2926  0.0898
 2174SOL    HW2 8699   0.016   1.873   4.004  1.4442  1.6558  0.1531
 2174SOL    HW3 8700  -0.066   1.956   3.907  0.1751  1.1625  0.7824
 2174SOL    MW4 8701  -0.003   1.898   3.923 -0.2156  0.5873  0.1895
 2175SOL     OW 8702   0.183   2.033   3.766  0.1870 -0.3722 -0.0522
 2175SOL    HW2 8703   0.186   2.119   3.809 -1.6637 -0.1414 -0.3500
 2175SOL    HW3 8704   0.107   1.990   3.803  0.0784 -1.1923 -1.1985
 2175SOL    MW4 8705   0.174   2.039   3.777 -0.0715 -0.4500 -0.2427
 2176SOL     OW 8706   0.189   2.293   3.872  0.4678 -0.1688 -0.0235
 2176SOL    HW2 8707   0.186   2.294   3.967  1.4153 -1.9971  0.0464
 2176SOL    HW3 8708   0.106   2.333   3.845 -0.9733 -1.9628  1.5785
 2176SOL    MW4 8709   0.178   2.299   3.881  0.4027 -0.6467  0.1971
 2177SOL     OW 8710   4.450   2.419   3.773 -0.4190 -0.7166  0.5647
 2177SOL    HW2 8711   4.368   2.378   3.802 -0.0651 -0.9327  1.2745
 2177SOL    HW3 8712   4.450   2.505   3.814 -0.2295 -0.7678  0.6719
 2177SOL    MW4 8713   4.439   2.425   3.782 -0.3473 -0.7518  0.6725
 2178SOL     OW 8714   4.480   2.651   3.902 -0.1162 -0.2707 -0.3625
 2178SOL    HW2 8715   4.482   2.660   3.997  0.5593 -3.0679 -0.0696
 2178SOL    HW3 8716   4.549   2.709   3.871  0.4864 -0.2602  0.9663
 2178SOL    MW4 8717   4.489   2.660   3.910  0.0524 -0.6383 -0.1485
 2179SOL     OW 8718   0.195   2.805   3.818 -0.4008 -0.2151  0.0062
 2179SOL    HW2 8719   0.280   2.764   3.834 -1.4591 -1.7307  1.9755
 2179SOL    HW3 8720   0.185   2.802   3.723  1.6053 -0.2818 -0.2326
 2179SOL    MW4 8721   0.205   2.799   3.808 -0.2758 -0.4239  0.2345
 2180SOL     OW 8722   0.207   3.067   3.889 -0.7045 -0.0180  0.0036
 2180SOL    HW2 8723   0.183   3.063   3.981  0.9945 -1.7327  0.4022
 2180SOL    HW3 8724   0.206   2.976   3.859 -0.3048  0.4223 -1.4136
 2180SOL    MW4 8725   0.204   3.055   3.897 -0.4276 -0.1862 -0.1308
 2181SOL     OW 8726   0.007   3.220   3.780  0.2327  0.0725 -0.4032
 2181SOL    HW2 8727   0.075   3.162   3.815 -0.2284  0.2843  0.8692
 2181SOL    HW3 8728   0.014   3.210   3.685  2.0303  0.0835 -0.2971
 2181SOL    MW4 8729   0.017   3.211   3.772  0.4090  0.1019 -0.2213
 2182SOL     OW 8730   0.017   3.486   3.884 -0.5103 -0.3803 -0.0193
 2182SOL    HW2 8731   0.098   3.526   3.853 -0.4094  0.0563  0.8086
 2182SOL    HW3 8732   0.022   3.395   3.852 -0.1221 -0.1109 -0.7445
 2182SOL    MW4 8733   0.029   3.479   3.876 -0.4458 -0.2872 -0.0057
 2183SOL     OW 8734   0.252   3.613   3.782 -0.3405 -0.0939 -0.6324
 2183SOL    HW2 8735   0.334   3.568   3.801 -0.6971 -0.6406 -0.3889
 2183SOL    HW3 8736   0.271   3.705   3.799 -0.4499 -0.4891  1.6807
 2183SOL    MW4 8737   0.266   3.619   3.787 -0.4020 -0.2182 -0.2951
 2184SOL     OW 8738   0.272   3.875   3.838  0.3294 -0.1757 -0.4202
 2184SOL    HW2 8739   0.260   3.863   3.932  0.0908 -1.5447 -0.6188
 2184SOL    HW3 8740   0.358   3.916   3.830  0.6280 -0.6341  0.3663
 2184SOL    MW4 8741   0.282   3.879   3.849  0.3373 -0.4168 -0.3426
 2185SOL     OW 8742   0.022   3.993   3.773  0.1690  0.3091  0.0143
 2185SOL    HW2 8743  -0.052   3.947   3.813 -0.8971  0.0255 -2.2502
 2185SOL    HW3 8744   0.098   3.941   3.800 -0.3512  0.8164  2.6800
 2185SOL    MW4 8745   0.022   3.980   3.782 -0.0403  0.3386  0.0672
 2186SOL     OW 8746   4.475   4.244   3.834 -0.0750 -0.1823 -0.3559
 2186SOL    HW2 8747   4.544   4.295   3.792  0.8887 -0.3652  0.9973
 2186SOL    HW3 8748   4.483   4.157   3.796  0.3155 -0.1511 -0.3456
 2186SOL    MW4 8749   4.485   4.239   3.823  0.1037 -0.2023 -0.1760
 2187SOL     OW 8750   0.215   4.394   3.754 -0.1640 -0.1589  0.1693
 2187SOL    HW2 8751   0.296   4.362   3.796 -0.2736 -0.1214  0.4084
 2187SOL    HW3 8752   0.214   4.487   3.773 -1.1303 -0.4614  1.6000
 2187SOL    MW4 8753   0.226   4.402   3.762 -0.3060 -0.1939  0.3896
 2188SOL     OW 8754   0.652   0.035   3.874 -0.2316  0.7082 -0.2378
 2188SOL    HW2 8755   0.670  -0.055   3.847  1.4079  0.3462  1.9482
 2188SOL    HW3 8756   0.581   0.063   3.816  0.0013 -1.5870 -1.7151
 2188SOL    MW4 8757   0.645   0.027   3.863  0.0155  0.3576 -0.1443
 2189SOL     OW 8758   0.429   0.140   3.715 -0.1028  0.5733 -1.1023
 2189SOL    HW2 8759   0.449   0.217   3.768 -0.0061  1.5324 -2.4736
 2189SOL    HW3 8760   0.365   0.091   3.766  0.4928  1.1163  0.1844
 2189SOL    MW4 8761   0.423   0.144   3.728 -0.0114  0.7715 -1.1134
 2190SOL     OW 8762   0.449   0.376   3.854 -0.2650  0.5199 -0.2765
 2190SOL    HW2 8763   0.519   0.427   3.814  0.6142  0.8172  1.5818
 2190SOL    HW3 8764   0.369   0.426   3.837 -0.1784 -0.2210 -3.0935
 2190SOL    MW4 8765   0.448   0.389   3.846 -0.1376  0.4613 -0.4030
 2191SOL     OW 8766   0.680   0.505   3.761 -0.4692 -0.0763  0.0918
 2191SOL    HW2 8767   0.760   0.466   3.796  0.5796  1.4620 -0.5754
 2191SOL    HW3 8768   0.666   0.584   3.813 -0.6686  0.5154 -0.8416
 2191SOL    MW4 8769   0.689   0.510   3.772 -0.3571  0.2047 -0.1194
 2192SOL     OW 8770   0.630   0.731   3.889 -0.0653 -0.0746  0.0755
 2192SOL    HW2 8771   0.706   0.766   3.842 -0.4552  0.2547 -0.3175
 2192SOL    HW3 8772   0.556   0.750   3.831 -0.8325  2.1244  1.6978
 2192SOL    MW4 8773   0.631   0.738   3.875 -0.2180  0.2590  0.2377
 2193SOL     OW 8774   0.426   0.855   3.754  0.2294 -0.4738  0.0821
 2193SOL    HW2 8775   0.445   0.940   3.795 -2.5412  0.7521 -1.0521
 2193SOL    HW3 8776   0.337   0.834   3.782 -0.4712 -1.2263 -2.6062
 2193SOL    MW4 8777   0.417   0.864   3.763 -0.2286 -0.4113 -0.4222
 2194SOL     OW 8778   0.446   1.114   3.875  0.2313  0.1246  0.5915
 2194SOL    HW2 8779   0.521   1.166   3.848 -0.3190  0.1606 -0.9203
 2194SOL    HW3 8780   0.372   1.149   3.825 -0.2639 -1.6833  0.0010
 2194SOL    MW4 8781   0.446   1.125   3.865  0.0934 -0.1092  0.3141
 2195SOL     OW 8782   0.638   1.280   3.785  0.1433  0.4648  0.3670
 2195SOL    HW2 8783   0.703   1.221   3.823 -0.8794 -0.5409  0.5692
 2195SOL    HW3 8784   0.651   1.273   3.691 -0.3047 -0.4579  0.3749
 2195SOL    MW4 8785   0.649   1.271   3.778 -0.0507  0.2104  0.3947
 2196SOL     OW 8786   0.636   1.538   3.894  0.0855  0.0831 -0.2904
 2196SOL    HW2 8787   0.711   1.582   3.855 -0.9045  1.5189 -0.6248
 2196SOL    HW3 8788   0.647   1.445   3.871  0.9147  0.5219 -1.6684
 2196SOL    MW4 8789   0.647   1.531   3.886  0.0643  0.3304 -0.5163
 2197SOL     OW 8790   0.417   1.639   3.772 -0.0530  0.8157  0.3930
 2197SOL    HW2 8791   0.498   1.618   3.817 -0.8007 -0.4492  1.1804
 2197SOL    HW3 8792   0.348   1.602   3.827 -1.1634  1.7721 -0.3151
 2197SOL    MW4 8793   0.418   1.632   3.785 -0.2981  0.7750  0.4035
 2198SOL     OW 8794   0.409   1.903   3.850  0.0870 -0.4070 -0.4536
 2198SOL    HW2 8795   0.412   1.812   3.820 -0.5252  0.0474 -1.8910
 2198SOL    HW3 8796   0.327   1.938   3.815  0.6240  0.8918 -0.4424
 2198SOL    MW4 8797   0.399   1.896   3.842  0.0771 -0.1757 -0.6417
 2199SOL     OW 8798   0.639   2.065   3.788 -0.2569 -0.4597 -0.4143
 2199SOL    HW2 8799   0.630   2.155   3.819 -0.0821 -0.4310 -0.4455
 2199SOL    HW3 8800   0.561   2.020   3.821 -0.3082 -0.3148 -0.3379
 2199SOL    MW4 8801   0.628   2.071   3.796 -0.2406 -0.4368 -0.4084
 2200SOL     OW 8802   0.640   2.338   3.855  0.3990  0.0278  0.3607
 2200SOL    HW2 8803   0.706   2.398   3.820  1.1460 -0.7143  0.4923
 2200SOL    HW3 8804   0.556   2.383   3.840  0.8405  0.4447 -0.8830
 2200SOL    MW4 8805   0.637   2.352   3.848  0.5558 -0.0151  0.2140
 2201SOL     OW 8806   0.392   2.479   3.759 -0.0175 -0.0647 -0.3027
 2201SOL    HW2 8807   0.316   2.433   3.795  0.1486 -0.3101 -0.2647
 2201SOL    HW3 8808   0.402   2.444   3.671 -0.7241  0.8953 -0.7744
 2201SOL    MW4 8809   0.384   2.468   3.752 -0.0888  0.0296 -0.3599
 2202SOL     OW 8810   0.473   2.716   3.870  0.2253  0.3174  0.0572
 2202SOL    HW2 8811   0.526   2.787   3.831  0.1703  0.2319 -0.1719
 2202SOL    HW3 8812   0.478   2.645   3.806  0.5296  0.0022  0.4262
 2202SOL    MW4 8813   0.481   2.716   3.857  0.2582  0.2645  0.0757
 2203SOL     OW 8814   0.675   2.879   3.757  0.1572 -0.4157 -0.8313
 2203SOL    HW2 8815   0.744   2.819   3.785 -0.4916 -1.4297 -1.3658
 2203SOL    HW3 8816   0.670   2.868   3.662 -0.9394 -0.5802 -0.7664
 2203SOL    MW4 8817   0.683   2.870   3.748 -0.0731 -0.5712 -0.8932
 2204SOL     OW 8818   0.645   3.129   3.889 -0.5142 -0.0700 -0.2754
 2204SOL    HW2 8819   0.659   3.111   3.982  1.6811 -0.4348 -0.6462
 2204SOL    HW3 8820   0.654   3.043   3.847 -2.7151 -0.1157 -0.7220
 2204SOL    MW4 8821   0.648   3.115   3.896 -0.5149 -0.1242 -0.3832
 2205SOL     OW 8822   0.412   3.214   3.775 -0.6933  0.0758  0.1887
 2205SOL    HW2 8823   0.486   3.193   3.832 -0.1863 -0.5105 -0.6719
 2205SOL    HW3 8824   0.336   3.176   3.819 -0.3998  0.1778  0.7875
 2205SOL    MW4 8825   0.412   3.206   3.788 -0.5877  0.0119  0.1542
 2206SOL     OW 8826   0.455   3.460   3.885 -0.0669 -0.2246 -0.0453
 2206SOL    HW2 8827   0.540   3.491   3.855 -1.1258  3.1038  0.2329
 2206SOL    HW3 8828   0.447   3.372   3.848  3.3815 -0.5295 -0.2168
 2206SOL    MW4 8829   0.465   3.452   3.876  0.2484  0.1743 -0.0313
 2207SOL     OW 8830   0.685   3.578   3.784  0.0377 -0.4055  0.3970
 2207SOL    HW2 8831   0.692   3.670   3.809 -1.7491 -0.3614  0.8393
 2207SOL    HW3 8832   0.688   3.578   3.689 -0.8171  0.2213  0.3585
 2207SOL    MW4 8833   0.686   3.590   3.775 -0.3108 -0.3170  0.4502
 2208SOL     OW 8834   0.703   3.839   3.866 -0.0610  0.1841 -0.3224
 2208SOL    HW2 8835   0.721   3.838   3.960 -0.9246  0.8735 -0.1387
 2208SOL    HW3 8836   0.778   3.885   3.829 -0.0957  0.6092  0.1208
 2208SOL    MW4 8837   0.715   3.845   3.874 -0.1795  0.3312 -0.2397
 2209SOL     OW 8838   0.501   4.018   3.760  0.6911 -0.2080 -0.4818
 2209SOL    HW2 8839   0.563   3.950   3.787  0.0856 -0.4381  0.3579
 2209SOL    HW3 8840   0.499   4.012   3.664 -0.1341 -2.0781 -0.3666
 2209SOL    MW4 8841   0.509   4.008   3.751  0.5023 -0.4851 -0.3558
 2210SOL     OW 8842   0.456   4.276   3.839  0.1929 -0.2708 -0.3132
 2210SOL    HW2 8843   0.541   4.317   3.826  0.2292  0.0750  0.9882
 2210SOL    HW3 8844   0.468   4.186   3.806  0.7846  0.0483 -0.9886
 2210SOL    MW4 8845   0.469   4.269   3.833  0.2758 -0.1831 -0.2306
 2211SOL     OW 8846   0.692   4.449   3.766 -0.2920  0.6215  0.5947
 2211SOL    HW2 8847   0.761   4.390   3.797  0.5799  1.8828  1.1232
 2211SOL    HW3 8848   0.699   4.447   3.671 -0.2589 -0.1062  0.6110
 2211SOL    MW4 8849   0.702   4.441   3.758 -0.1726  0.6919  0.6666
 2212SOL     OW 8850   1.095   4.603   3.848  0.2434  0.6428 -0.5424
 2212SOL    HW2 8851   1.160   4.661   3.809 -0.1546  2.2848  1.1653
 2212SOL    HW3 8852   1.123   4.515   3.824  2.9080  1.3521 -0.1094
 2212SOL    MW4 8853   1.107   4.599   3.839  0.5425  0.9531 -0.2600
 2213SOL     OW 8854   0.901   0.121   3.783 -0.1585 -0.0306 -0.2468
 2213SOL    HW2 8855   0.958   0.047   3.804 -1.5720 -1.2765 -0.6842
 2213SOL    HW3 8856   0.813   0.090   3.805 -0.6384  2.0154  0.8271
 2213SOL    MW4 8857   0.897   0.107   3.789 -0.4083  0.0750 -0.1628
 2214SOL     OW 8858   0.906   0.391   3.856  0.1366 -0.0972  0.2684
 2214SOL    HW2 8859   0.896   0.385   3.952 -0.2296 -1.3826  0.1639
 2214SOL    HW3 8860   0.918   0.300   3.828 -1.6140  0.0621 -1.1075
 2214SOL    MW4 8861   0.906   0.378   3.865 -0.1427 -0.2458  0.0730
 2215SOL     OW 8862   1.101   0.533   3.747  0.4238  0.1530  0.2230
 2215SOL    HW2 8863   1.177   0.479   3.767  0.4671 -0.1897 -0.8074
 2215SOL    HW3 8864   1.027   0.486   3.786  0.8089  0.7800  1.7064
 2215SOL    MW4 8865   1.101   0.520   3.755  0.4803  0.1905  0.2828
 2216SOL     OW 8866   1.104   0.764   3.896  0.2348 -0.7602  0.2602
 2216SOL    HW2 8867   1.102   0.749   3.990 -2.2755 -1.0194  0.2042
 2216SOL    HW3 8868   1.116   0.677   3.858 -2.7837 -1.2382  0.2683
 2216SOL    MW4 8869   1.105   0.750   3.903 -0.4946 -0.8574  0.2539
 2217SOL     OW 8870   0.855   0.846   3.778  0.4171  0.6562  0.2217
 2217SOL    HW2 8871   0.937   0.811   3.814  0.6850  0.0137 -0.9685
 2217SOL    HW3 8872   0.872   0.853   3.684 -1.5343 -1.3630 -0.3293
 2217SOL    MW4 8873   0.868   0.842   3.771  0.1950  0.3050 -0.0080
 2218SOL     OW 8874   0.842   1.124   3.849  0.0308 -0.0324 -0.4145
 2218SOL    HW2 8875   0.845   1.132   3.944 -0.3662  0.7553 -0.4636
 2218SOL    HW3 8876   0.850   1.030   3.832  1.8899 -0.0229  0.3231
 2218SOL    MW4 8877   0.844   1.113   3.859  0.2237  0.0728 -0.3237
 2219SOL     OW 8878   1.105   1.244   3.804 -0.0447  0.1575  0.3229
 2219SOL    HW2 8879   1.095   1.338   3.821 -0.1109 -0.1242  1.8695
 2219SOL    HW3 8880   1.017   1.208   3.818  0.2609 -0.3268  0.9787
 2219SOL    MW4 8881   1.092   1.252   3.808 -0.0131  0.0565  0.6135
 2220SOL     OW 8882   1.074   1.549   3.868 -0.4442  0.6242  0.2788
 2220SOL    HW2 8883   1.083   1.543   3.964 -0.0323  0.0172  0.2049
 2220SOL    HW3 8884   1.154   1.593   3.839 -0.5213  0.7159  0.2084
 2220SOL    MW4 8885   1.086   1.554   3.877 -0.4000  0.5562  0.2598
 2221SOL     OW 8886   0.858   1.674   3.758 -0.0064 -0.1986 -0.1632
 2221SOL    HW2 8887   0.935   1.647   3.808  0.9040  0.3141 -1.2727
 2221SOL    HW3 8888   0.884   1.663   3.666 -0.6857  1.4901 -0.5816
 2221SOL    MW4 8889   0.872   1.669   3.752  0.0241  0.0919 -0.3648
 2222SOL     OW 8890   0.853   1.931   3.874  0.3714 -0.1077 -0.0583
 2222SOL    HW2 8891   0.842   1.845   3.833  3.4628 -0.3910 -0.4169
 2222SOL    HW3 8892   0.781   1.984   3.838 -0.0883 -1.8424 -1.7799
 2222SOL    MW4 8893   0.842   1.927   3.864  0.7186 -0.3740 -0.3327
 2223SOL     OW 8894   1.105   2.034   3.776  0.1262  0.5533 -0.0551
 2223SOL    HW2 8895   1.026   2.000   3.818  1.0755 -1.1192  0.4368
 2223SOL    HW3 8896   1.081   2.044   3.684 -0.2242 -1.4472 -0.2115
 2223SOL    MW4 8897   1.091   2.031   3.769  0.2053  0.0687 -0.0108
 2224SOL     OW 8898   1.127   2.305   3.856  0.3348  0.3402  0.3302
 2224SOL    HW2 8899   1.106   2.312   3.949  0.4696 -0.1950  0.4004
 2224SOL    HW3 8900   1.117   2.212   3.836  1.8997  0.1940  0.1871
 2224SOL    MW4 8901   1.123   2.294   3.866  0.5591  0.2503  0.3206
 2225SOL     OW 8902   0.876   2.436   3.748 -0.5300 -0.4326  0.8188
 2225SOL    HW2 8903   0.874   2.523   3.787 -0.3039 -0.0312 -0.0625
 2225SOL    HW3 8904   0.946   2.390   3.796  1.6488  0.9342 -0.9200
 2225SOL    MW4 8905   0.885   2.441   3.759 -0.2127 -0.1993  0.4731
 2226SOL     OW 8906   0.870   2.711   3.837  0.4422 -0.1015  0.2461
 2226SOL    HW2 8907   0.885   2.688   3.928  1.5787 -0.7497 -0.0961
 2226SOL    HW3 8908   0.951   2.751   3.807  0.6268 -1.2873 -0.9045
 2226SOL    MW4 8909   0.882   2.713   3.845  0.6165 -0.3435  0.0491
 2227SOL     OW 8910   1.100   2.842   3.751  0.1423  0.3395  0.1704
 2227SOL    HW2 8911   1.160   2.781   3.796 -0.4062  1.2813  2.2698
 2227SOL    HW3 8912   1.115   2.925   3.795 -0.1827  1.4011 -1.6930
 2227SOL    MW4 8913   1.110   2.845   3.763  0.0270  0.6038  0.2015
 2228SOL     OW 8914   1.120   3.074   3.903  0.0906 -0.0978 -0.0166
 2228SOL    HW2 8915   1.199   3.115   3.867  0.5291 -1.1293 -0.2364
 2228SOL    HW3 8916   1.048   3.112   3.854  0.5366  0.0359 -0.5667
 2228SOL    MW4 8917   1.121   3.084   3.892  0.2073 -0.2163 -0.1182
 2229SOL     OW 8918   0.888   3.228   3.755  0.4055 -0.2261 -1.0776
 2229SOL    HW2 8919   0.804   3.187   3.774  0.8342 -0.2474  0.8590
 2229SOL    HW3 8920   0.907   3.204   3.664 -0.5569 -2.1854 -0.7780
 2229SOL    MW4 8921   0.879   3.219   3.746  0.3351 -0.4874 -0.7826
 2230SOL     OW 8922   0.903   3.455   3.901  0.0814 -0.4223 -0.2268
 2230SOL    HW2 8923   0.905   3.372   3.854 -0.6032 -0.2723 -0.5320
 2230SOL    HW3 8924   0.832   3.504   3.860  0.9489  0.6033 -0.5339
 2230SOL    MW4 8925   0.894   3.451   3.889  0.1055 -0.2672 -0.3076
 2231SOL     OW 8926   1.096   3.611   3.769  0.0063  0.0733 -0.4476
 2231SOL    HW2 8927   1.096   3.694   3.818  0.1065 -0.1578 -0.0525
 2231SOL    HW3 8928   1.022   3.562   3.805  0.0398 -0.0695 -0.5760
 2231SOL    MW4 8929   1.086   3.616   3.781  0.0239  0.0239 -0.4124
 2232SOL     OW 8930   1.146   3.876   3.864  0.0599 -0.3628 -0.3397
 2232SOL    HW2 8931   1.152   3.865   3.959  0.0189 -1.1128 -0.4194
 2232SOL    HW3 8932   1.235   3.901   3.837  0.3703 -1.3482 -0.2503
 2232SOL    MW4 8933   1.159   3.878   3.873  0.0954 -0.5918 -0.3384
 2233SOL     OW 8934   0.906   4.001   3.773 -0.4565  0.4184  0.2988
 2233SOL    HW2 8935   0.989   3.963   3.803 -1.7363 -1.9377  0.9833
 2233SOL    HW3 8936   0.919   4.016   3.680  0.9111  0.5997  0.4984
 2233SOL    MW4 8937   0.919   3.998   3.765 -0.4449  0.1314  0.4154
 2234SOL     OW 8938   0.878   4.256   3.876  0.6617 -0.0023 -0.0722
 2234SOL    HW2 8939   0.906   4.249   3.968 -1.2907 -0.4650  0.5155
 2234SOL    HW3 8940   0.880   4.166   3.843 -1.0291 -0.1850  0.2729
 2234SOL    MW4 8941   0.882   4.243   3.884  0.1811 -0.0875  0.0509
 2235SOL     OW 8942   1.122   4.331   3.765  0.1216  0.4376 -0.3429
 2235SOL    HW2 8943   1.032   4.308   3.786 -0.5051  1.9938 -1.2080
 2235SOL    HW3 8944   1.119   4.361   3.674  1.6880 -0.4261 -0.6893
 2235SOL    MW4 8945   1.110   4.332   3.756  0.2456  0.5290 -0.5028
 2236SOL     OW 8946   1.471   4.599   3.867 -0.2289  0.1416 -0.0063
 2236SOL    HW2 8947   1.501   4.624   3.954 -0.2049  0.2795 -0.0534
 2236SOL    HW3 8948   1.482   4.504   3.864 -0.3582  0.1214  0.1889
 2236SOL    MW4 8949   1.477   4.590   3.878 -0.2428  0.1571  0.0132
 2237SOL     OW 8950   1.283   0.091   3.731 -0.2855  0.2791 -0.6638
 2237SOL    HW2 8951   1.293   0.184   3.752 -0.7182 -0.1770  1.6609
 2237SOL    HW3 8952   1.359   0.049   3.771  0.0207 -0.3507 -1.8947
 2237SOL    MW4 8953   1.294   0.098   3.739 -0.3022  0.1358 -0.5195
 2238SOL     OW 8954   1.288   0.347   3.863  0.4962 -0.3435  0.6556
 2238SOL    HW2 8955   1.376   0.382   3.849  0.5179  0.2308  2.1646
 2238SOL    HW3 8956   1.284   0.329   3.957 -1.1723  0.1093  0.6798
 2238SOL    MW4 8957   1.299   0.349   3.873  0.2789 -0.2080  0.8579
 2239SOL     OW 8958   1.510   0.495   3.777 -0.3008  0.7925 -0.5578
 2239SOL    HW2 8959   1.584   0.442   3.809  0.7442  1.6035 -1.6054
 2239SOL    HW3 8960   1.523   0.581   3.817 -0.6289  0.9559 -0.8031
 2239SOL    MW4 8961   1.522   0.499   3.786 -0.2062  0.9211 -0.7283
 2240SOL     OW 8962   1.513   0.776   3.874 -0.0741  0.2443 -0.0709
 2240SOL    HW2 8963   1.590   0.832   3.862 -0.4673  0.5772 -1.1492
 2240SOL    HW3 8964   1.445   0.818   3.820 -0.5196 -0.9782 -0.4722
 2240SOL    MW4 8965   1.514   0.789   3.865 -0.1847  0.1269 -0.2661
 2241SOL     OW 8966   1.288   0.885   3.741 -0.0173  0.1702 -0.2611
 2241SOL    HW2 8967   1.303   0.971   3.780  1.5783 -0.8258  1.4101
 2241SOL    HW3 8968   1.221   0.844   3.795  0.3865 -0.2487 -0.0674
 2241SOL    MW4 8969   1.281   0.891   3.753  0.2465 -0.0165 -0.0151
 2242SOL     OW 8970   1.350   1.120   3.893  0.1319 -0.3676 -0.0206
 2242SOL    HW2 8971   1.430   1.170   3.879 -0.1609  0.4186  1.0507
 2242SOL    HW3 8972   1.282   1.169   3.845 -0.1763  0.3591  1.1192
 2242SOL    MW4 8973   1.351   1.133   3.885  0.0526 -0.1680  0.2711
 2243SOL     OW 8974   1.564   1.265   3.803 -0.0108 -0.0674  0.4994
 2243SOL    HW2 8975   1.653   1.251   3.834  0.5669  0.6548 -0.7724
 2243SOL    HW3 8976   1.540   1.351   3.837 -1.5609 -1.7228  3.7962
 2243SOL    MW4 8977   1.573   1.274   3.811 -0.1391 -0.1905  0.7666
 2244SOL     OW 8978   1.545   1.540   3.892 -0.3239  0.4176 -0.0546
 2244SOL    HW2 8979   1.551   1.542   3.988  1.6331 -0.6823 -0.1355
 2244SOL    HW3 8980   1.628   1.577   3.862 -0.1388 -0.9866 -1.3254
 2244SOL    MW4 8981   1.557   1.545   3.901 -0.0413  0.0872 -0.2330
 2245SOL     OW 8982   1.316   1.637   3.755  0.0968 -0.1090  0.0018
 2245SOL    HW2 8983   1.319   1.730   3.775  0.4425 -0.0446 -0.3435
 2245SOL    HW3 8984   1.391   1.600   3.801 -0.5927 -0.3719  0.9258
 2245SOL    MW4 8985   1.326   1.644   3.764  0.0515 -0.1352  0.0782
 2246SOL     OW 8986   1.342   1.907   3.822 -0.5154  0.1867  0.0510
 2246SOL    HW2 8987   1.342   1.889   3.916 -0.9183 -0.4080 -0.0633
 2246SOL    HW3 8988   1.255   1.942   3.804 -0.3625  0.5100 -0.0598
 2246SOL    MW4 8989   1.331   1.909   3.832 -0.5484  0.1509  0.0213
 2247SOL     OW 8990   1.570   2.086   3.770 -0.3217 -0.2799  0.1844
 2247SOL    HW2 8991   1.483   2.056   3.795 -0.7217  0.0638 -0.7960
 2247SOL    HW3 8992   1.571   2.084   3.675  0.5052  0.3896  0.1632
 2247SOL    MW4 8993   1.559   2.082   3.761 -0.2653 -0.1462  0.0523
 2248SOL     OW 8994   1.590   2.322   3.939  0.3254  0.4826  0.0512
 2248SOL    HW2 8995   1.657   2.373   3.893 -0.8462  0.6874 -1.4763
 2248SOL    HW3 8996   1.595   2.235   3.900  0.3778  0.2289  0.6318
 2248SOL    MW4 8997   1.599   2.317   3.928  0.1777  0.4762 -0.0737
 2249SOL     OW 8998   1.377   2.429   3.778 -0.7044 -0.0714  0.2329
 2249SOL    HW2 8999   1.459   2.410   3.823 -0.3288  0.5737 -0.1595
 2249SOL    HW3 9000   1.316   2.363   3.809 -0.2819 -0.0030  1.2187
 2249SOL    MW4 9001   1.380   2.418   3.788 -0.5991  0.0228  0.3112
 2250SOL     OW 9002   1.299   2.674   3.847 -0.2097 -0.0322  0.1056
 2250SOL    HW2 9003   1.307   2.670   3.942  1.0866 -0.0947  0.0014
 2250SOL    HW3 9004   1.312   2.584   3.818  0.3988  0.1517 -0.2001
 2250SOL    MW4 9005   1.301   2.662   3.855  0.0416 -0.0161  0.0515
 2251SOL     OW 9006   1.568   2.818   3.771  0.0419  0.0933 -0.0716
 2251SOL    HW2 9007   1.487   2.768   3.778  0.6392 -1.0661 -1.1785
 2251SOL    HW3 9008   1.589   2.816   3.677  1.7917 -0.3456  0.3167
 2251SOL    MW4 9009   1.560   2.811   3.759  0.3516 -0.1176 -0.1664
 2252SOL     OW 9010   1.597   3.074   3.886  0.6036  0.0421  0.1472
 2252SOL    HW2 9011   1.599   3.083   3.981 -2.7232 -0.4926  0.3591
 2252SOL    HW3 9012   1.588   2.980   3.871  0.2920  0.1952 -0.6601
 2252SOL    MW4 9013   1.596   3.063   3.896  0.1236 -0.0082  0.0687
 2253SOL     OW 9014   1.364   3.177   3.781  0.5561 -0.1048  0.3665
 2253SOL    HW2 9015   1.356   3.259   3.831  2.2682  0.9662 -1.0825
 2253SOL    HW3 9016   1.439   3.132   3.821 -1.7338 -2.1100  2.6600
 2253SOL    MW4 9017   1.373   3.182   3.793  0.4798 -0.2280  0.4779
 2254SOL     OW 9018   1.308   3.456   3.862  0.3003 -0.3219 -0.1865
 2254SOL    HW2 9019   1.386   3.493   3.821 -0.0434  0.1000 -0.4709
 2254SOL    HW3 9020   1.235   3.507   3.826 -0.0770 -0.4778  0.3419
 2254SOL    MW4 9021   1.309   3.467   3.851  0.2052 -0.2868 -0.1543
 2255SOL     OW 9022   1.550   3.602   3.763 -0.0492  0.0209 -0.2132
 2255SOL    HW2 9023   1.615   3.550   3.810 -0.6687  0.1444  0.8072
 2255SOL    HW3 9024   1.550   3.687   3.807 -0.1008  0.3900 -0.9199
 2255SOL    MW4 9025   1.558   3.606   3.775 -0.1378  0.0859 -0.1718
 2256SOL     OW 9026   1.589   3.842   3.885 -0.0252 -0.0538  0.0977
 2256SOL    HW2 9027   1.584   3.864   3.978  0.4378  0.5835 -0.0242
 2256SOL    HW3 9028   1.522   3.896   3.844  0.5454  0.5227 -0.0883
 2256SOL    MW4 9029   1.580   3.852   3.892  0.1112  0.1063  0.0571
 2257SOL     OW 9030   1.376   3.963   3.748  0.1357 -0.1588  0.2933
 2257SOL    HW2 9031   1.370   4.046   3.796 -0.2631  0.2455 -0.4439
 2257SOL    HW3 9032   1.362   3.987   3.657 -0.2288 -1.0756  0.1016
 2257SOL    MW4 9033   1.373   3.977   3.742  0.0350 -0.2265  0.1707
 2258SOL     OW 9034   1.344   4.198   3.893  0.0785  0.1035  0.0479
 2258SOL    HW2 9035   1.419   4.242   3.853  0.4127 -0.2133  0.3139
 2258SOL    HW3 9036   1.267   4.238   3.853  0.3552  1.6992  1.0909
 2258SOL    MW4 9037   1.344   4.209   3.882  0.1591  0.2722  0.2206
 2259SOL     OW 9038   1.579   4.322   3.796 -0.1506  0.1620  0.1235
 2259SOL    HW2 9039   1.659   4.301   3.845 -0.9383 -0.6494  1.0963
 2259SOL    HW3 9040   1.609   4.337   3.706  1.3622  1.9605  0.8892
 2259SOL    MW4 9041   1.594   4.321   3.791 -0.0549  0.2922  0.3529
 2260SOL     OW 9042   1.930   4.651   3.872  0.1471 -0.4471 -0.5201
 2260SOL    HW2 9043   1.987   4.715   3.828 -0.8234  0.4417 -0.4906
 2260SOL    HW3 9044   1.962   4.566   3.840  0.8529  0.0853 -1.2713
 2260SOL    MW4 9045   1.942   4.648   3.862  0.1121 -0.2596 -0.6153
 2261SOL     OW 9046   1.691   0.109   3.803 -0.2473  0.2441 -0.4415
 2261SOL    HW2 9047   1.770   0.059   3.827 -0.0573 -0.6119 -2.7424
 2261SOL    HW3 9048   1.619   0.051   3.826 -0.0678 -0.5081 -1.6901
 2261SOL    MW4 9049   1.692   0.095   3.809 -0.1985  0.0319 -0.9098
 2262SOL     OW 9050   1.729   0.368   3.901  0.2834  0.0905  0.3753
 2262SOL    HW2 9051   1.737   0.353   3.995 -0.7967 -1.1379  0.2912
 2262SOL    HW3 9052   1.718   0.280   3.863 -0.1278  0.6300 -0.8004
 2262SOL    MW4 9053   1.728   0.354   3.908  0.0867 -0.0004  0.2090
 2263SOL     OW 9054   1.967   0.501   3.814  0.0109 -0.7152  0.2478
 2263SOL    HW2 9055   1.895   0.457   3.860 -1.3241  1.8630  0.7202
 2263SOL    HW3 9056   1.933   0.512   3.724  0.5935 -1.1988 -0.0335
 2263SOL    MW4 9057   1.953   0.497   3.808 -0.0884 -0.4388  0.2730
 2264SOL     OW 9058   1.969   0.760   3.898 -0.1652  0.1638  0.0867
 2264SOL    HW2 9059   1.998   0.751   3.989 -0.5135  0.3506  0.2184
 2264SOL    HW3 9060   1.970   0.671   3.863 -2.0038 -0.1897  0.8789
 2264SOL    MW4 9061   1.973   0.747   3.905 -0.4537  0.1418  0.2086
 2265SOL     OW 9062   1.760   0.921   3.830  0.0417  0.5685 -0.0185
 2265SOL    HW2 9063   1.828   0.863   3.864 -1.1571 -1.2438 -0.6499
 2265SOL    HW3 9064   1.752   0.898   3.737 -1.8469  0.3217  0.1827
 2265SOL    MW4 9065   1.768   0.911   3.822 -0.3657  0.2969 -0.0752
 2266SOL     OW 9066   1.820   1.180   3.891  0.0884  0.6183 -0.3921
 2266SOL    HW2 9067   1.824   1.177   3.987  0.5905  0.6543 -0.4111
 2266SOL    HW3 9068   1.796   1.091   3.865 -1.1516  0.8833 -0.1797
 2266SOL    MW4 9069   1.817   1.168   3.900 -0.0089  0.6580 -0.3666
 2267SOL     OW 9070   2.026   1.291   3.751  0.8477  0.0256 -0.0464
 2267SOL    HW2 9071   2.106   1.244   3.773  1.4362 -0.3166 -2.7429
 2267SOL    HW3 9072   1.956   1.241   3.794  1.8612 -1.0358  0.3751
 2267SOL    MW4 9073   2.027   1.278   3.759  1.0591 -0.1596 -0.3466
 2268SOL     OW 9074   2.027   1.546   3.872 -0.2230 -0.1151 -0.3750
 2268SOL    HW2 9075   1.946   1.589   3.844  0.0926  0.7619  0.0192
 2268SOL    HW3 9076   2.022   1.458   3.836 -1.7185 -0.3239  0.3104
 2268SOL    MW4 9077   2.016   1.540   3.864 -0.3787 -0.0269 -0.2325
 2269SOL     OW 9078   1.785   1.646   3.794 -0.4352  0.2364 -0.1027
 2269SOL    HW2 9079   1.798   1.739   3.814 -2.5951  0.2688  1.3153
 2269SOL    HW3 9080   1.778   1.643   3.699 -0.0618  1.4937 -0.1848
 2269SOL    MW4 9081   1.786   1.658   3.784 -0.6709  0.4066  0.0736
 2270SOL     OW 9082   1.805   1.926   3.863  0.2038  0.0183 -0.0375
 2270SOL    HW2 9083   1.792   1.937   3.957 -1.0226 -0.9334 -0.0969
 2270SOL    HW3 9084   1.729   1.968   3.823  0.3678 -0.1971 -0.5774
 2270SOL    MW4 9085   1.793   1.933   3.870  0.0637 -0.1357 -0.1166
 2271SOL     OW 9086   2.010   2.084   3.801 -0.0579  0.1554 -0.3030
 2271SOL    HW2 9087   1.941   2.026   3.831 -0.7336  1.6722  1.1302
 2271SOL    HW3 9088   2.003   2.083   3.706 -1.3664 -0.5181 -0.2056
 2271SOL    MW4 9089   2.000   2.076   3.792 -0.3197  0.2667 -0.1011
 2272SOL     OW 9090   2.016   2.330   3.918 -0.1411  0.0200 -0.1259
 2272SOL    HW2 9091   1.940   2.371   3.877 -1.1482 -1.5946  0.0967
 2272SOL    HW3 9092   2.016   2.240   3.885  0.4630 -0.5901  1.4920
 2272SOL    MW4 9093   2.006   2.323   3.908 -0.1943 -0.2735  0.1169
 2273SOL     OW 9094   1.781   2.495   3.796  0.0057 -0.1547  0.3447
 2273SOL    HW2 9095   1.801   2.587   3.812  1.6277 -0.3915 -0.1950
 2273SOL    HW3 9096   1.792   2.485   3.701 -1.1475 -0.6765  0.2650
 2273SOL    MW4 9097   1.785   2.506   3.785  0.0676 -0.2548  0.2630
 2274SOL     OW 9098   1.816   2.759   3.890  0.3337  0.3304  0.0597
 2274SOL    HW2 9099   1.805   2.738   3.982 -0.0544  0.7631  0.1112
 2274SOL    HW3 9100   1.729   2.782   3.860  0.4878  0.3468 -0.3797
 2274SOL    MW4 9101   1.803   2.759   3.898  0.3029  0.3897  0.0085
 2275SOL     OW 9102   2.065   2.828   3.763  0.1056  0.3726 -0.5567
 2275SOL    HW2 9103   2.137   2.790   3.814  1.3879  3.2264 -0.1442
 2275SOL    HW3 9104   1.987   2.810   3.816  0.8627 -0.3583  0.3492
 2275SOL    MW4 9105   2.064   2.820   3.777  0.3747  0.6527 -0.3827
 2276SOL     OW 9106   2.030   3.094   3.864  0.2003  0.3899 -0.0039
 2276SOL    HW2 9107   2.093   3.161   3.838 -0.9085  0.7904 -1.7207
 2276SOL    HW3 9108   2.053   3.017   3.812 -0.9609  0.6594 -0.9261
 2276SOL    MW4 9109   2.041   3.093   3.854 -0.0992  0.4783 -0.3521
 2277SOL     OW 9110   1.784   3.216   3.750 -0.2146  0.0858 -0.0122
 2277SOL    HW2 9111   1.857   3.177   3.797  0.8664 -0.8011 -2.3161
 2277SOL    HW3 9112   1.707   3.166   3.778  0.4398 -0.5920  0.5674
 2277SOL    MW4 9113   1.783   3.204   3.760  0.0144 -0.1207 -0.2397
 2278SOL     OW 9114   1.785   3.475   3.885 -0.0109  0.1605  0.4216
 2278SOL    HW2 9115   1.862   3.517   3.848  0.3150 -1.3913 -0.7393
 2278SOL    HW3 9116   1.770   3.399   3.828 -1.0313 -0.8343  1.9941
 2278SOL    MW4 9117   1.793   3.470   3.872 -0.1026 -0.1755  0.4759
 2279SOL     OW 9118   2.013   3.602   3.813 -0.1309 -0.2030  0.0235
 2279SOL    HW2 9119   2.084   3.564   3.865 -0.8205  1.0894  1.9698
 2279SOL    HW3 9120   2.052   3.615   3.726  1.6339 -0.6755  0.7098
 2279SOL    MW4 9121   2.028   3.599   3.808  0.0110 -0.0948  0.3708
 2280SOL     OW 9122   2.020   3.877   3.891 -0.2350  0.0323  0.0870
 2280SOL    HW2 9123   2.114   3.897   3.888 -0.1533 -0.5151 -1.2205
 2280SOL    HW3 9124   2.015   3.784   3.871 -0.9713 -0.2337  1.4657
 2280SOL    MW4 9125   2.032   3.867   3.888 -0.3214 -0.0751  0.0964
 2281SOL     OW 9126   1.794   3.991   3.758 -0.5567  0.0328 -0.2018
 2281SOL    HW2 9127   1.880   3.969   3.795 -0.6943  0.1326  0.1804
 2281SOL    HW3 9128   1.733   3.939   3.810 -0.6871 -0.3838 -0.7719
 2281SOL    MW4 9129   1.797   3.981   3.770 -0.5921 -0.0090 -0.2266
 2282SOL     OW 9130   1.824   4.225   3.897  0.6514 -0.0171  0.3579
 2282SOL    HW2 9131   1.883   4.277   3.843  1.0158 -0.2226  0.5516
 2282SOL    HW3 9132   1.815   4.142   3.851  0.1777  0.1664  0.1166
 2282SOL    MW4 9133   1.831   4.221   3.884  0.6369 -0.0200  0.3516
 2283SOL     OW 9134   1.995   4.385   3.770  0.0955 -0.4348 -0.2913
 2283SOL    HW2 9135   2.080   4.349   3.797  0.1375  0.4370  0.7935
 2283SOL    HW3 9136   2.004   4.397   3.676  0.7668 -1.4350 -0.3648
 2283SOL    MW4 9137   2.008   4.382   3.761  0.1896 -0.4518 -0.1579
 2284SOL     OW 9138   2.404   0.019   3.847 -0.1613 -0.6227  0.0176
 2284SOL    HW2 9139   2.408   0.002   3.941 -0.4219  1.1632  0.3589
 2284SOL    HW3 9140   2.493   0.044   3.823 -0.6635  1.4728  0.2937
 2284SOL    MW4 9141   2.416   0.020   3.856 -0.2620 -0.1106  0.0990
 2285SOL     OW 9142   2.158   0.143   3.785  0.3975  0.9276  0.2320
 2285SOL    HW2 9143   2.243   0.099   3.782 -0.0887 -0.0540  0.2883
 2285SOL    HW3 9144   2.140   0.166   3.694 -0.6747 -1.6913 -0.2757
 2285SOL    MW4 9145   2.167   0.140   3.772  0.1919  0.4526  0.1724
 2286SOL     OW 9146   2.216   0.405   3.881  0.4310 -0.0455 -0.0198
 2286SOL    HW2 9147   2.207   0.317   3.846 -1.3756  0.2250 -0.3222
 2286SOL    HW3 9148   2.133   0.448   3.858  0.5352  1.1540  1.7143
 2286SOL    MW4 9149   2.204   0.399   3.873  0.2064  0.1484  0.1691
 2287SOL     OW 9150   2.437   0.516   3.778 -0.1318  0.2892 -0.2756
 2287SOL    HW2 9151   2.362   0.468   3.813  0.6821 -1.1809 -0.4955
 2287SOL    HW3 9152   2.433   0.502   3.683  0.1372  0.6169 -0.3378
 2287SOL    MW4 9153   2.427   0.508   3.770  0.0111  0.1385 -0.3128
 2288SOL     OW 9154   2.441   0.760   3.884 -0.0573  0.3407  0.4105
 2288SOL    HW2 9155   2.378   0.813   3.835  0.1189  0.9335  0.8124
 2288SOL    HW3 9156   2.439   0.675   3.841 -1.0970  0.3673  0.3852
 2288SOL    MW4 9157   2.432   0.756   3.872 -0.1712  0.4224  0.4602
 2289SOL     OW 9158   2.229   0.874   3.763 -0.2089 -0.0199  0.0396
 2289SOL    HW2 9159   2.144   0.831   3.773  0.2766 -0.9548  0.1301
 2289SOL    HW3 9160   2.253   0.860   3.672 -1.2342  2.2747 -0.6346
 2289SOL    MW4 9161   2.221   0.867   3.752 -0.2801  0.1595 -0.0374
 2290SOL     OW 9162   2.240   1.152   3.901 -0.4501 -0.2122 -0.3156
 2290SOL    HW2 9163   2.238   1.177   3.993 -2.2737 -0.7537 -0.1880
 2290SOL    HW3 9164   2.225   1.057   3.902 -1.0574 -0.1259 -1.2119
 2290SOL    MW4 9165   2.238   1.143   3.913 -0.7708 -0.2722 -0.4170
 2291SOL     OW 9166   2.462   1.268   3.771 -0.0537  0.4005  0.2820
 2291SOL    HW2 9167   2.468   1.356   3.808 -1.0329  0.7493 -0.3798
 2291SOL    HW3 9168   2.385   1.230   3.812  1.1589 -0.6644  1.6227
 2291SOL    MW4 9169   2.453   1.275   3.781 -0.0229  0.3060  0.3716
 2292SOL     OW 9170   2.471   1.529   3.844  0.3682  0.1371  0.2787
 2292SOL    HW2 9171   2.530   1.585   3.794  1.2832  0.4635  1.6983
 2292SOL    HW3 9172   2.384   1.562   3.824  0.8502  1.5836  0.5176
 2292SOL    MW4 9173   2.468   1.541   3.835  0.5525  0.3710  0.4975
 2293SOL     OW 9174   2.243   1.661   3.762 -0.0664 -0.6169  0.1780
 2293SOL    HW2 9175   2.239   1.752   3.791  1.8335 -0.5493  0.3089
 2293SOL    HW3 9176   2.165   1.620   3.799 -0.7579  0.8823  0.3991
 2293SOL    MW4 9177   2.232   1.667   3.771  0.0931 -0.4102  0.2245
 2294SOL     OW 9178   2.247   1.924   3.848 -0.0373 -0.0142 -0.0602
 2294SOL    HW2 9179   2.246   1.929   3.944 -0.6723 -1.2660  0.0006
 2294SOL    HW3 9180   2.166   1.967   3.821  0.2465  0.5345 -0.0572
 2294SOL    MW4 9181   2.236   1.931   3.857 -0.0836 -0.1070 -0.0518
 2295SOL     OW 9182   2.469   2.053   3.739  0.0715  0.6353  0.1368
 2295SOL    HW2 9183   2.472   2.132   3.793  0.2735  0.4200  0.4438
 2295SOL    HW3 9184   2.384   2.013   3.760 -0.9564  1.8570 -1.5798
 2295SOL    MW4 9185   2.458   2.058   3.749 -0.0375  0.7681 -0.0492
 2296SOL     OW 9186   2.450   2.314   3.848  0.6756  0.4228 -0.0720
 2296SOL    HW2 9187   2.534   2.360   3.843  0.9369  0.0541  0.8560
 2296SOL    HW3 9188   2.387   2.374   3.809  1.6826 -0.0752 -2.6077
 2296SOL    MW4 9189   2.453   2.328   3.842  0.8429  0.3085 -0.2841
 2297SOL     OW 9190   2.232   2.449   3.786 -0.3647  0.2783  0.1600
 2297SOL    HW2 9191   2.153   2.408   3.823 -0.0917 -2.1742 -1.8018
 2297SOL    HW3 9192   2.222   2.438   3.691  2.2062  0.1804 -0.1332
 2297SOL    MW4 9193   2.220   2.442   3.778  0.0105 -0.0582 -0.1375
 2298SOL     OW 9194   2.263   2.683   3.926  0.3084 -0.3817 -0.0560
 2298SOL    HW2 9195   2.249   2.663   4.019 -0.9910  0.6631 -0.0092
 2298SOL    HW3 9196   2.260   2.598   3.883 -3.3575 -0.5062  0.3418
 2298SOL    MW4 9197   2.261   2.669   3.933 -0.3467 -0.2603  0.0027
 2299SOL     OW 9198   2.466   2.844   3.798 -1.0783  0.3125 -0.3045
 2299SOL    HW2 9199   2.395   2.793   3.838  0.2036 -1.6509 -0.4655
 2299SOL    HW3 9200   2.451   2.836   3.703 -0.7806  0.0880 -0.3337
 2299SOL    MW4 9201   2.455   2.836   3.790 -0.8699  0.0238 -0.3296
 2300SOL     OW 9202   2.474   3.109   3.892  0.2119  0.0551 -0.7071
 2300SOL    HW2 9203   2.486   3.115   3.986 -0.6427  1.6091 -0.6832
 2300SOL    HW3 9204   2.475   3.015   3.873 -0.2013 -0.2788  0.9120
 2300SOL    MW4 9205   2.476   3.098   3.902  0.0446  0.2160 -0.4904
 2301SOL     OW 9206   2.254   3.248   3.768 -0.4505  0.0154 -0.0389
 2301SOL    HW2 9207   2.258   3.331   3.815 -0.6187 -0.2187  0.3849
 2301SOL    HW3 9208   2.307   3.188   3.820 -1.1080 -0.3958  0.1550
 2301SOL    MW4 9209   2.262   3.251   3.781 -0.5594 -0.0698  0.0426
 2302SOL     OW 9210   2.225   3.486   3.930 -0.3095  0.1289  0.4006
 2302SOL    HW2 9211   2.222   3.466   4.023  0.3671 -0.9832  0.1902
 2302SOL    HW3 9212   2.309   3.530   3.917  0.9302 -2.2865 -0.1519
 2302SOL    MW4 9213   2.236   3.489   3.940 -0.0566 -0.3365  0.3000
 2303SOL     OW 9214   2.476   3.614   3.793 -0.3186  0.2485  0.4007
 2303SOL    HW2 9215   2.544   3.550   3.816 -0.4676 -0.0180  0.1041
 2303SOL    HW3 9216   2.471   3.610   3.698  1.2030  2.2993  0.2054
 2303SOL    MW4 9217   2.484   3.605   3.784 -0.1375  0.4839  0.3358
 2304SOL     OW 9218   2.500   3.851   3.905 -0.3686 -0.3558  0.1071
 2304SOL    HW2 9219   2.571   3.902   3.867 -1.1614  0.4867 -0.2762
 2304SOL    HW3 9220   2.501   3.768   3.858 -0.3500  0.0859 -0.6763
 2304SOL    MW4 9221   2.509   3.847   3.894 -0.4708 -0.1864 -0.0468
 2305SOL     OW 9222   2.263   3.983   3.828  0.4503 -0.1070  0.6242
 2305SOL    HW2 9223   2.341   3.936   3.855 -0.3712 -1.8366  0.0138
 2305SOL    HW3 9224   2.263   3.977   3.732 -0.6581 -0.4736  0.6469
 2305SOL    MW4 9225   2.273   3.976   3.818  0.1957 -0.3836  0.5466
 2306SOL     OW 9226   2.227   4.259   3.852  0.4133  0.1254  0.1573
 2306SOL    HW2 9227   2.224   4.275   3.946 -2.2205  0.6641  0.0301
 2306SOL    HW3 9228   2.236   4.164   3.844 -0.1867 -0.0044  0.9785
 2306SOL    MW4 9229   2.228   4.249   3.863 -0.0134  0.1794  0.2488
 2307SOL     OW 9230   2.445   4.411   3.808 -0.5649 -0.1154 -0.2897
 2307SOL    HW2 9231   2.366   4.368   3.842  0.4901 -0.4693  1.8343
 2307SOL    HW3 9232   2.433   4.504   3.828 -0.4317 -0.1813  0.1189
 2307SOL    MW4 9233   2.433   4.417   3.815 -0.4081 -0.1708  0.0444
 2308SOL     OW 9234   2.902   4.667   3.899 -0.0011  0.1089  0.3081
 2308SOL    HW2 9235   2.895   4.657   3.994  2.2265  1.0067  0.5986
 2308SOL    HW3 9236   2.995   4.684   3.884 -0.2424 -0.5683 -2.0956
 2308SOL    MW4 9237   2.913   4.668   3.910  0.2610  0.1380  0.0293
 2309SOL     OW 9238   2.667   0.101   3.814  0.1329 -0.4043 -0.3172
 2309SOL    HW2 9239   2.752   0.063   3.837  0.4367 -0.0978 -0.9271
 2309SOL    HW3 9240   2.673   0.118   3.720 -0.5951 -0.3573 -0.3566
 2309SOL    MW4 9241   2.679   0.098   3.804  0.0769 -0.3577 -0.4028
 2310SOL     OW 9242   2.645   0.371   3.897 -0.0093  0.7962 -0.2031
 2310SOL    HW2 9243   2.636   0.276   3.891  1.3022  0.5356  1.4811
 2310SOL    HW3 9244   2.583   0.405   3.833 -0.6579 -1.1857 -0.6715
 2310SOL    MW4 9245   2.636   0.363   3.888  0.0782  0.5003 -0.0427
 2311SOL     OW 9246   2.898   0.479   3.801 -0.2750  0.2261 -0.0610
 2311SOL    HW2 9247   2.971   0.441   3.849  0.2058 -0.3605 -1.2343
 2311SOL    HW3 9248   2.827   0.416   3.812 -0.3257  0.3502  0.3179
 2311SOL    MW4 9249   2.898   0.466   3.809 -0.2182  0.1651 -0.1658
 2312SOL     OW 9250   2.906   0.747   3.885  0.3942  0.1840  0.3621
 2312SOL    HW2 9251   2.990   0.783   3.860 -0.2732  1.0508 -0.6593
 2312SOL    HW3 9252   2.909   0.656   3.856  0.9510  0.2355  0.2596
 2312SOL    MW4 9253   2.917   0.740   3.878  0.3796  0.3052  0.2138
 2313SOL     OW 9254   2.680   0.853   3.778  0.0159  0.4170  0.2019
 2313SOL    HW2 9255   2.763   0.824   3.815  0.2154 -0.3278 -0.7998
 2313SOL    HW3 9256   2.613   0.814   3.835  0.3508  2.0777  1.7767
 2313SOL    MW4 9257   2.682   0.844   3.790  0.0864  0.5378  0.2775
 2314SOL     OW 9258   2.671   1.114   3.862 -0.3970 -0.0253  0.6302
 2314SOL    HW2 9259   2.663   1.023   3.830  1.1223 -0.1477  0.5817
 2314SOL    HW3 9260   2.602   1.161   3.815 -0.2559 -0.8613 -0.4392
 2314SOL    MW4 9261   2.661   1.108   3.851 -0.1779 -0.1518  0.4827
 2315SOL     OW 9262   2.907   1.244   3.785 -0.0406  0.1685 -0.6293
 2315SOL    HW2 9263   2.902   1.333   3.821  0.9114  0.2112 -0.5950
 2315SOL    HW3 9264   2.828   1.201   3.818  0.6499  0.3081  1.2561
 2315SOL    MW4 9265   2.896   1.250   3.794  0.1761  0.1925 -0.3760
 2316SOL     OW 9266   2.903   1.512   3.863  0.0540  0.0112 -0.1930
 2316SOL    HW2 9267   2.900   1.527   3.958 -1.7942  2.7023 -0.6279
 2316SOL    HW3 9268   2.985   1.552   3.835  0.5075 -0.6101  0.2306
 2316SOL    MW4 9269   2.914   1.519   3.872 -0.1300  0.2843 -0.1945
 2317SOL     OW 9270   2.684   1.680   3.753  0.0930  0.1200 -0.0673
 2317SOL    HW2 9271   2.751   1.620   3.785 -0.6624 -0.3361  0.6814
 2317SOL    HW3 9272   2.693   1.678   3.657  0.9591 -0.1440  0.0240
 2317SOL    MW4 9273   2.694   1.672   3.744  0.1076  0.0250  0.0436
 2318SOL     OW 9274   2.704   1.947   3.852  0.3717  0.1806 -0.1221
 2318SOL    HW2 9275   2.697   1.856   3.823 -0.3458 -0.0599  0.7957
 2318SOL    HW3 9276   2.636   1.993   3.803 -0.5954 -0.1577  0.8797
 2318SOL    MW4 9277   2.694   1.941   3.841  0.1494  0.1042  0.1312
 2319SOL     OW 9278   2.965   2.072   3.774  0.0120  0.0830  0.4890
 2319SOL    HW2 9279   2.956   2.165   3.797 -0.1588 -0.1127  1.2386
 2319SOL    HW3 9280   2.883   2.032   3.804  0.0810 -0.3045  0.1567
 2319SOL    MW4 9281   2.953   2.079   3.781 -0.0014  0.0061  0.5440
 2320SOL     OW 9282   2.943   2.314   3.891 -0.1288 -0.4759 -0.1354
 2320SOL    HW2 9283   2.941   2.300   3.986 -0.7628 -0.1044 -0.0886
 2320SOL    HW3 9284   3.017   2.372   3.876 -0.3012 -0.1720  0.1846
 2320SOL    MW4 9285   2.952   2.320   3.901 -0.2352 -0.3868 -0.0870
 2321SOL     OW 9286   2.700   2.427   3.841  0.4421  0.0839  0.0203
 2321SOL    HW2 9287   2.697   2.522   3.852  0.6786  0.1564 -0.5252
 2321SOL    HW3 9288   2.781   2.400   3.885 -1.4122 -0.2997  3.2953
 2321SOL    MW4 9289   2.711   2.436   3.848  0.2287  0.0429  0.3804
 2322SOL     OW 9290   2.689   2.697   3.868  0.0358 -0.5583  0.4706
 2322SOL    HW2 9291   2.692   2.704   3.963  1.2796  1.1029  0.3461
 2322SOL    HW3 9292   2.603   2.732   3.843 -0.1069 -0.5627  0.9598
 2322SOL    MW4 9293   2.678   2.703   3.877  0.1811 -0.3397  0.5187
 2323SOL     OW 9294   2.897   2.853   3.777 -0.1317  0.2225  0.1822
 2323SOL    HW2 9295   2.885   2.939   3.818  0.6665  0.4068  0.0340
 2323SOL    HW3 9296   2.820   2.803   3.805 -1.5042  1.5176 -1.1218
 2323SOL    MW4 9297   2.885   2.858   3.786 -0.2075  0.4177 -0.0094
 2324SOL     OW 9298   2.879   3.091   3.888  0.6026 -0.4414 -0.7854
 2324SOL    HW2 9299   2.962   3.125   3.853  0.2365 -1.1391 -2.3404
 2324SOL    HW3 9300   2.811   3.139   3.840  0.0638  0.8017  1.1292
 2324SOL    MW4 9301   2.881   3.102   3.877  0.4832 -0.3695 -0.7380
 2325SOL     OW 9302   2.693   3.208   3.761  0.1111  0.0881  0.0799
 2325SOL    HW2 9303   2.712   3.286   3.813 -0.7542 -0.7151  1.6186
 2325SOL    HW3 9304   2.614   3.171   3.799 -1.0142 -0.0831 -2.3279
 2325SOL    MW4 9305   2.685   3.213   3.773 -0.1516 -0.0404 -0.0348
 2326SOL     OW 9306   2.719   3.471   3.868  0.3164  0.0239 -0.0136
 2326SOL    HW2 9307   2.726   3.482   3.963  1.3182 -0.7278  0.0141
 2326SOL    HW3 9308   2.787   3.528   3.833 -0.6459  0.9864 -0.3332
 2326SOL    MW4 9309   2.729   3.480   3.876  0.3216  0.0517 -0.0521
 2327SOL     OW 9310   2.923   3.640   3.770  0.1591 -0.4182  0.1295
 2327SOL    HW2 9311   3.004   3.591   3.787  0.6019  0.1668 -0.2730
 2327SOL    HW3 9312   2.908   3.628   3.676  0.1620  0.0453  0.0683
 2327SOL    MW4 9313   2.932   3.632   3.760  0.2179 -0.2798  0.0683
 2328SOL     OW 9314   2.885   3.890   3.897 -0.5340  0.0180  0.5705
 2328SOL    HW2 9315   2.881   3.885   3.992 -0.6532  0.1096  0.5699
 2328SOL    HW3 9316   2.915   3.803   3.870 -2.2897 -0.6124  0.5849
 2328SOL    MW4 9317   2.888   3.878   3.906 -0.7813 -0.0531  0.5723
 2329SOL     OW 9318   2.691   4.020   3.780 -0.0683  0.0039 -0.0309
 2329SOL    HW2 9319   2.692   4.109   3.816  1.5111  0.0685 -0.2073
 2329SOL    HW3 9320   2.752   3.971   3.835 -1.0806 -1.0479  0.1942
 2329SOL    MW4 9321   2.699   4.025   3.792  0.0065 -0.1263 -0.0245
 2330SOL     OW 9322   2.688   4.290   3.879  0.1324  0.4664 -0.5554
 2330SOL    HW2 9323   2.749   4.354   3.842 -0.7772  0.8324 -1.4603
 2330SOL    HW3 9324   2.602   4.329   3.865 -0.3147 -0.1028  0.5936
 2330SOL    MW4 9325   2.685   4.303   3.872 -0.0466  0.4396 -0.5232
 2331SOL     OW 9326   2.900   4.442   3.760  0.3832  0.1022  0.0123
 2331SOL    HW2 9327   2.968   4.385   3.796  0.3606 -0.3192 -0.6063
 2331SOL    HW3 9328   2.905   4.521   3.813  0.4103 -0.4780  0.8922
 2331SOL    MW4 9329   2.910   4.445   3.772  0.3838 -0.0300  0.0467
 2332SOL     OW 9330   3.369   4.625   3.897  0.0405 -0.2741  0.0902
 2332SOL    HW2 9331   3.350   4.636   3.990 -0.0963 -2.2547  0.3026
 2332SOL    HW3 9332   3.453   4.670   3.885  0.3751 -0.5515  1.3061
 2332SOL    MW4 9333   3.378   4.633   3.908  0.0666 -0.5720  0.2787
 2333SOL     OW 9334   3.143   0.076   3.768  0.0699 -0.7995 -0.2747
 2333SOL    HW2 9335   3.226   0.032   3.783  0.4307 -0.1527 -0.3330
 2333SOL    HW3 9336   3.142   0.094   3.674  0.4544  0.3533 -0.0635
 2333SOL    MW4 9337   3.153   0.073   3.757  0.1682 -0.5621 -0.2545
 2334SOL     OW 9338   3.128   0.347   3.918 -0.6471  0.4149 -0.1483
 2334SOL    HW2 9339   3.131   0.330   4.012 -0.3579 -0.5595 -0.3356
 2334SOL    HW3 9340   3.134   0.261   3.877 -1.5475  0.7624 -1.0514
 2334SOL    MW4 9341   3.129   0.333   3.925 -0.7277  0.3322 -0.2921
 2335SOL     OW 9342   3.328   0.508   3.826 -0.5668  0.2836  0.4192
 2335SOL    HW2 9343   3.407   0.463   3.856 -0.5716 -0.6534 -0.9364
 2335SOL    HW3 9344   3.256   0.460   3.867 -0.5028  0.0778  0.2909
 2335SOL    MW4 9345   3.329   0.495   3.835 -0.5590  0.1328  0.2234
 2336SOL     OW 9346   3.375   0.775   3.935  0.1387 -0.2423 -0.3520
 2336SOL    HW2 9347   3.379   0.763   4.030  0.5396  0.4061 -0.2854
 2336SOL    HW3 9348   3.351   0.689   3.901 -0.6088 -0.3275  0.3827
 2336SOL    MW4 9349   3.372   0.762   3.943  0.0930 -0.1680 -0.2463
 2337SOL     OW 9350   3.153   0.889   3.825  0.2605 -0.0628 -0.1551
 2337SOL    HW2 9351   3.234   0.864   3.870  1.1710  0.2342 -1.6140
 2337SOL    HW3 9352   3.176   0.892   3.733 -1.4552 -0.0817 -0.6046
 2337SOL    MW4 9353   3.166   0.886   3.819  0.1542 -0.0261 -0.4069
 2338SOL     OW 9354   3.138   1.174   3.917  0.0039 -0.1546 -0.2667
 2338SOL    HW2 9355   3.165   1.092   3.876  0.2129 -0.4541  0.4730
 2338SOL    HW3 9356   3.048   1.187   3.888  0.0304 -0.5472 -0.5312
 2338SOL    MW4 9357   3.130   1.165   3.908  0.0350 -0.2459 -0.2040
 2339SOL     OW 9358   3.388   1.278   3.798 -0.1080  0.1184  0.0701
 2339SOL    HW2 9359   3.303   1.255   3.836 -0.5565  0.8679 -0.4696
 2339SOL    HW3 9360   3.376   1.268   3.704  0.5790 -0.3427  0.0330
 2339SOL    MW4 9361   3.375   1.274   3.791 -0.0766  0.1564 -0.0060
 2340SOL     OW 9362   3.401   1.552   3.897  0.3155  0.2013 -0.1959
 2340SOL    HW2 9363   3.326   1.602   3.865  0.6390  1.5161  1.0549
 2340SOL    HW3 9364   3.385   1.463   3.866 -2.1842  0.2808  0.7359
 2340SOL    MW4 9365   3.389   1.547   3.888  0.0284  0.3853  0.0921
 2341SOL     OW 9366   3.153   1.647   3.766  0.6690 -0.1726 -0.3379
 2341SOL    HW2 9367   3.126   1.728   3.809 -0.7083 -1.2167  0.8311
 2341SOL    HW3 9368   3.137   1.662   3.673 -0.9258  0.4036  0.0212
 2341SOL    MW4 9369   3.147   1.659   3.759  0.2768 -0.2343 -0.1363
 2342SOL     OW 9370   3.105   1.883   3.919  0.2264  0.0199  0.5337
 2342SOL    HW2 9371   3.123   1.911   4.008  0.7529 -0.0672  0.4514
 2342SOL    HW3 9372   3.055   1.955   3.881 -1.4137 -0.6277  1.3987
 2342SOL    MW4 9373   3.101   1.896   3.925  0.0795 -0.0770  0.6369
 2343SOL     OW 9374   3.357   2.092   3.776 -0.0139 -0.2576  0.2358
 2343SOL    HW2 9375   3.282   2.036   3.795 -0.9876  0.7981 -0.4572
 2343SOL    HW3 9376   3.361   2.095   3.680  0.3061  0.5155  0.2726
 2343SOL    MW4 9377   3.348   2.085   3.766 -0.1002 -0.0163  0.1492
 2344SOL     OW 9378   3.368   2.368   3.867 -0.3059  0.3899  0.1404
 2344SOL    HW2 9379   3.294   2.410   3.822 -0.1257 -0.4794 -1.0107
 2344SOL    HW3 9380   3.364   2.277   3.838  0.6106  0.1054  0.8852
 2344SOL    MW4 9381   3.357   2.361   3.857 -0.1612  0.2376  0.0868
 2345SOL     OW 9382   3.143   2.486   3.761  0.3541 -0.1957  0.3829
 2345SOL    HW2 9383   3.133   2.579   3.781 -0.8485 -0.4313  0.9723
 2345SOL    HW3 9384   3.131   2.481   3.666  1.7448  0.4036  0.1683
 2345SOL    MW4 9385   3.140   2.498   3.751  0.3789 -0.1477  0.4324
 2346SOL     OW 9386   3.137   2.751   3.891 -0.4294 -0.1038  0.5779
 2346SOL    HW2 9387   3.140   2.752   3.987 -1.9018 -2.3014  0.6679
 2346SOL    HW3 9388   3.056   2.797   3.869  0.7037  1.8052  0.3123
 2346SOL    MW4 9389   3.127   2.757   3.901 -0.4741 -0.1419  0.5547
 2347SOL     OW 9390   3.389   2.814   3.794 -0.4874  0.2452 -0.2826
 2347SOL    HW2 9391   3.303   2.781   3.819 -0.5473  0.7249  0.1680
 2347SOL    HW3 9392   3.380   2.838   3.702  0.0496 -2.5701 -1.1006
 2347SOL    MW4 9393   3.377   2.813   3.785 -0.4244 -0.0629 -0.3310
 2348SOL     OW 9394   3.352   3.079   3.870 -0.2092 -0.2373 -0.2891
 2348SOL    HW2 9395   3.439   3.116   3.857 -0.5945  0.5965 -0.4800
 2348SOL    HW3 9396   3.358   2.990   3.834  0.0515  0.4387 -1.9438
 2348SOL    MW4 9397   3.364   3.072   3.863 -0.2256 -0.0381 -0.5326
 2349SOL     OW 9398   3.126   3.214   3.801  0.5658  0.0557  0.4439
 2349SOL    HW2 9399   3.208   3.167   3.817  1.1072  0.6818 -0.3779
 2349SOL    HW3 9400   3.122   3.221   3.705  0.0058  0.8085  0.5213
 2349SOL    MW4 9401   3.136   3.209   3.790  0.5633  0.2377  0.3457
 2350SOL     OW 9402   3.134   3.492   3.850  0.1330  0.4049  0.1223
 2350SOL    HW2 9403   3.219   3.530   3.829  0.3182 -0.4396 -0.7084
 2350SOL    HW3 9404   3.143   3.399   3.826 -0.9540  0.2710  0.2060
 2350SOL    MW4 9405   3.146   3.485   3.844  0.0140  0.2758  0.0238
 2351SOL     OW 9406   3.394   3.576   3.790 -0.0449 -0.6149 -0.0071
 2351SOL    HW2 9407   3.390   3.667   3.818 -0.3736 -1.3962  2.6359
 2351SOL    HW3 9408   3.389   3.579   3.694  0.8486  2.1706  0.0027
 2351SOL    MW4 9409   3.393   3.588   3.781  0.0296 -0.3504  0.3429
 2352SOL     OW 9410   3.363   3.838   3.888 -0.3947 -0.6505  0.0372
 2352SOL    HW2 9411   3.441   3.878   3.851 -0.6311  0.6864  0.9128
 2352SOL    HW3 9412   3.293   3.901   3.868 -0.9918 -1.1842  0.4396
 2352SOL    MW4 9413   3.364   3.852   3.881 -0.5047 -0.5445  0.2058
 2353SOL     OW 9414   3.129   4.009   3.832 -0.1096 -0.4204  0.0007
 2353SOL    HW2 9415   3.106   4.102   3.823  0.1977 -0.3503 -0.0792
 2353SOL    HW3 9416   3.046   3.965   3.852 -0.2198 -0.1009  0.2382
 2353SOL    MW4 9417   3.115   4.016   3.833 -0.0836 -0.3690  0.0215
 2354SOL     OW 9418   3.102   4.273   3.854 -0.0763  0.1847  0.1944
 2354SOL    HW2 9419   3.126   4.254   3.945  0.2663  2.0489  0.5157
 2354SOL    HW3 9420   3.184   4.298   3.812 -0.5710  1.2930 -0.1094
 2354SOL    MW4 9421   3.116   4.274   3.860 -0.0963  0.5769  0.1967
 2355SOL     OW 9422   3.352   4.377   3.787  0.2158  0.3855  0.1601
 2355SOL    HW2 9423   3.428   4.336   3.829  0.7535  0.7814 -0.4295
 2355SOL    HW3 9424   3.347   4.464   3.827 -0.3395  0.1160  0.6926
 2355SOL    MW4 9425   3.361   4.383   3.798  0.2135  0.4022  0.1525
 2356SOL     OW 9426   3.840   4.624   3.881  0.4847 -0.1382  0.1070
 2356SOL    HW2 9427   3.917   4.662   3.839  0.7238 -0.8533 -0.0953
 2356SOL    HW3 9428   3.843   4.531   3.860 -1.1738  0.0475 -1.0649
 2356SOL    MW4 9429   3.850   4.617   3.873  0.2974 -0.2081 -0.0743
 2357SOL     OW 9430   3.591   0.106   3.815  0.1831 -0.2002 -0.1081
 2357SOL    HW2 9431   3.666   0.055   3.845  1.0224  1.1767  0.1501
 2357SOL    HW3 9432   3.605   0.116   3.721 -0.5514 -1.3556 -0.3590
 2357SOL    MW4 9433   3.603   0.100   3.807  0.1969 -0.1710 -0.1072
 2358SOL     OW 9434   3.576   0.392   3.902 -0.0651  0.0867 -0.4782
 2358SOL    HW2 9435   3.660   0.410   3.859  0.9368 -1.5748  0.6984
 2358SOL    HW3 9436   3.557   0.300   3.880 -0.5103 -0.1848  0.9739
 2358SOL    MW4 9437   3.585   0.382   3.893  0.0084 -0.1683 -0.1314
 2359SOL     OW 9438   3.790   0.493   3.777  0.2274  0.3039 -0.0170
 2359SOL    HW2 9439   3.864   0.437   3.799  0.3771  0.0039 -1.2410
 2359SOL    HW3 9440   3.809   0.576   3.819  0.7614 -0.0910  0.5200
 2359SOL    MW4 9441   3.802   0.496   3.785  0.3176  0.2122 -0.1076
 2360SOL     OW 9442   3.819   0.749   3.909 -0.6868 -0.0863  0.1016
 2360SOL    HW2 9443   3.892   0.781   3.855 -0.4843 -1.4032 -0.4321
 2360SOL    HW3 9444   3.742   0.791   3.872 -0.5500 -0.9606 -1.2509
 2360SOL    MW4 9445   3.819   0.758   3.897 -0.6420 -0.3754 -0.1472
 2361SOL     OW 9446   3.598   0.877   3.786 -0.1806 -0.3676 -0.1830
 2361SOL    HW2 9447   3.603   0.965   3.824  0.3758 -0.6409  0.3739
 2361SOL    HW3 9448   3.527   0.835   3.834  0.5649 -0.7345  0.6082
 2361SOL    MW4 9449   3.589   0.883   3.797 -0.0089 -0.4521 -0.0051
 2362SOL     OW 9450   3.616   1.135   3.873  0.1364 -0.0595  0.5017
 2362SOL    HW2 9451   3.684   1.188   3.831  0.0412 -0.5083 -0.2108
 2362SOL    HW3 9452   3.534   1.178   3.851  0.1062 -0.1361  0.4662
 2362SOL    MW4 9453   3.614   1.147   3.865  0.1199 -0.1288  0.4030
 2363SOL     OW 9454   3.836   1.284   3.769  0.0222 -0.3739 -0.3014
 2363SOL    HW2 9455   3.908   1.232   3.804  0.1435 -0.0124 -0.0198
 2363SOL    HW3 9456   3.851   1.373   3.801 -1.2598 -0.5453  0.8452
 2363SOL    MW4 9457   3.847   1.289   3.778 -0.1309 -0.3488 -0.1130
 2364SOL     OW 9458   3.848   1.563   3.850 -0.0824 -0.1803  0.0587
 2364SOL    HW2 9459   3.840   1.567   3.945 -0.5379  0.8645 -0.0151
 2364SOL    HW3 9460   3.767   1.601   3.817  0.5851  0.5796 -0.7480
 2364SOL    MW4 9461   3.836   1.568   3.858 -0.0544  0.0578 -0.0574
 2365SOL     OW 9462   3.597   1.697   3.768 -0.0109 -0.1675  0.7345
 2365SOL    HW2 9463   3.527   1.647   3.808  0.1706 -0.1376  1.0942
 2365SOL    HW3 9464   3.583   1.687   3.674 -0.2835 -0.4560  0.8045
 2365SOL    MW4 9465   3.586   1.689   3.761 -0.0230 -0.2016  0.7912
 2366SOL     OW 9466   3.602   1.956   3.845 -0.1730 -0.5181 -0.1444
 2366SOL    HW2 9467   3.596   1.865   3.815  0.2181 -1.2059  1.7746
 2366SOL    HW3 9468   3.519   1.995   3.820 -1.2049 -2.0021  0.8693
 2366SOL    MW4 9469   3.590   1.949   3.838 -0.2576 -0.8047  0.2425
 2367SOL     OW 9470   3.829   2.103   3.793 -0.0345 -0.4690  0.0324
 2367SOL    HW2 9471   3.893   2.047   3.837 -0.9248 -0.5392  1.2251
 2367SOL    HW3 9472   3.745   2.061   3.807 -0.6675  0.9533  0.6045
 2367SOL    MW4 9473   3.827   2.090   3.800 -0.2355 -0.2906  0.2652
 2368SOL     OW 9474   3.785   2.328   3.949 -0.3133 -0.0145 -0.3335
 2368SOL    HW2 9475   3.714   2.373   3.903 -0.9456 -0.6707 -0.0071
 2368SOL    HW3 9476   3.800   2.249   3.898 -0.3491 -0.2620  0.0377
 2368SOL    MW4 9477   3.777   2.323   3.936 -0.4015 -0.1337 -0.2415
 2369SOL     OW 9478   3.609   2.455   3.774 -0.1420  0.0865  0.5051
 2369SOL    HW2 9479   3.527   2.418   3.808 -1.0498  1.6288  0.0120
 2369SOL    HW3 9480   3.597   2.457   3.679  0.0107  1.4050  0.5166
 2369SOL    MW4 9481   3.597   2.450   3.766 -0.2416  0.4640  0.4416
 2370SOL     OW 9482   3.606   2.708   3.930  0.1923  0.2832 -0.1769
 2370SOL    HW2 9483   3.626   2.622   3.892  0.5828 -0.3527  1.4583
 2370SOL    HW3 9484   3.530   2.738   3.880 -0.3043 -1.2659 -0.3842
 2370SOL    MW4 9485   3.598   2.701   3.918  0.1783 -0.0051  0.0115
 2371SOL     OW 9486   3.817   2.841   3.816 -0.0410  0.1150  0.3156
 2371SOL    HW2 9487   3.893   2.792   3.847  1.1025  0.5925 -1.6337
 2371SOL    HW3 9488   3.743   2.805   3.865  1.0824 -2.0597  0.4443
 2371SOL    MW4 9489   3.817   2.830   3.827  0.2581 -0.1089  0.0754
 2372SOL     OW 9490   3.828   3.092   3.934  0.3006  0.2416 -0.0264
 2372SOL    HW2 9491   3.751   3.127   3.889 -0.0222  0.2307  0.5174
 2372SOL    HW3 9492   3.834   3.001   3.903 -0.1034  0.1409  0.1881
 2372SOL    MW4 9493   3.819   3.084   3.924  0.2047  0.2269  0.0736
 2373SOL     OW 9494   3.586   3.218   3.828 -0.4333 -0.2585 -0.5167
 2373SOL    HW2 9495   3.598   3.305   3.865 -0.1793  0.3701 -2.0386
 2373SOL    HW3 9496   3.608   3.228   3.735 -0.6642 -1.8793 -0.7633
 2373SOL    MW4 9497   3.591   3.230   3.820 -0.4302 -0.3894 -0.7500
 2374SOL     OW 9498   3.618   3.458   3.945 -0.1962 -0.4556 -0.3494
 2374SOL    HW2 9499   3.611   3.482   4.037 -0.2175 -1.2314 -0.1473
 2374SOL    HW3 9500   3.540   3.497   3.905 -1.1272 -1.6112  0.2912
 2374SOL    MW4 9501   3.607   3.466   3.952 -0.3218 -0.7104 -0.2382
 2375SOL     OW 9502   3.830   3.560   3.808  0.2705  0.1361  0.0448
 2375SOL    HW2 9503   3.824   3.652   3.835 -0.3093 -0.0192  0.4695
 2375SOL    HW3 9504   3.762   3.516   3.859 -0.1350 -0.3580 -0.9076
 2375SOL    MW4 9505   3.820   3.567   3.819  0.1405  0.0504 -0.0248
 2376SOL     OW 9506   3.801   3.823   3.888 -0.0597 -0.2002  0.0132
 2376SOL    HW2 9507   3.802   3.832   3.984  0.2148 -1.4749  0.1293
 2376SOL    HW3 9508   3.886   3.858   3.861  0.1172 -0.4094  0.2876
 2376SOL    MW4 9509   3.813   3.829   3.897 -0.0001 -0.3960  0.0647
 2377SOL     OW 9510   3.584   3.966   3.787  0.1198  0.1365  0.0509
 2377SOL    HW2 9511   3.593   4.060   3.804 -0.3195  0.1914 -0.0017
 2377SOL    HW3 9512   3.661   3.926   3.827 -0.0937  0.4337  0.7560
 2377SOL    MW4 9513   3.595   3.973   3.794  0.0337  0.1830  0.1370
 2378SOL     OW 9514   3.598   4.236   3.861  0.1747  0.3595  0.6526
 2378SOL    HW2 9515   3.598   4.239   3.957 -0.1990  0.9680  0.6324
 2378SOL    HW3 9516   3.679   4.280   3.836 -0.6867  1.9408  0.6325
 2378SOL    MW4 9517   3.609   4.242   3.871  0.0117  0.6484  0.6473
 2379SOL     OW 9518   3.814   4.366   3.749  0.3899  0.0375  0.0146
 2379SOL    HW2 9519   3.885   4.305   3.767 -0.5865 -1.5131 -1.2411
 2379SOL    HW3 9520   3.795   4.354   3.656 -0.4664  1.5757 -0.0291
 2379SOL    MW4 9521   3.821   4.357   3.739  0.1481  0.0358 -0.1568
 2380SOL     OW 9522   4.261   4.644   3.900 -0.2970  0.3795  0.1862
 2380SOL    HW2 9523   4.262   4.672   3.992 -0.2795  1.8685 -0.2612
 2380SOL    HW3 9524   4.333   4.692   3.860  0.1078 -0.7712 -0.4742
 2380SOL    MW4 9525   4.270   4.654   3.907 -0.2413  0.4242  0.0400
 2381SOL     OW 9526   4.052   0.072   3.764 -0.6182 -0.1336 -0.3655
 2381SOL    HW2 9527   4.126   0.025   3.803 -1.2423 -0.9050 -0.1033
 2381SOL    HW3 9528   4.069   0.071   3.670 -0.1319 -0.0244 -0.2802
 2381SOL    MW4 9529   4.064   0.066   3.757 -0.6364 -0.2210 -0.3197
 2382SOL     OW 9530   4.018   0.338   3.827 -0.3852 -0.3414  0.0103
 2382SOL    HW2 9531   4.025   0.363   3.918 -1.0596 -0.2247  0.0337
 2382SOL    HW3 9532   4.039   0.244   3.826  1.1618 -0.0128  0.0572
 2382SOL    MW4 9533   4.022   0.329   3.839 -0.2701 -0.2826  0.0196
 2383SOL     OW 9534   4.268   0.451   3.749 -0.0303  0.4707  0.1893
 2383SOL    HW2 9535   4.182   0.421   3.778 -0.9809  3.6150  0.8377
 2383SOL    HW3 9536   4.265   0.444   3.653 -0.3478 -1.0933  0.3079
 2383SOL    MW4 9537   4.256   0.446   3.740 -0.1976  0.6792  0.2905
 2384SOL     OW 9538   4.233   0.687   3.898  0.4091  0.2215 -0.3639
 2384SOL    HW2 9539   4.164   0.741   3.860  0.7444  0.6289 -0.4069
 2384SOL    HW3 9540   4.245   0.615   3.835 -0.5001 -0.2778  0.0214
 2384SOL    MW4 9541   4.226   0.685   3.885  0.3334  0.2094 -0.3187
 2385SOL     OW 9542   4.042   0.848   3.782 -0.1005  0.0422  0.1053
 2385SOL    HW2 9543   4.047   0.935   3.821  1.8295 -0.2805  0.6676
 2385SOL    HW3 9544   4.047   0.863   3.688  1.1969  0.4957  0.2403
 2385SOL    MW4 9545   4.043   0.861   3.775  0.3253  0.0594  0.1973
 2386SOL     OW 9546   4.042   1.141   3.868  0.0496 -0.5076  0.0056
 2386SOL    HW2 9547   4.039   1.156   3.962  0.5246 -0.6343  0.0433
 2386SOL    HW3 9548   4.113   1.198   3.837  1.5189 -2.2546  0.0672
 2386SOL    MW4 9549   4.051   1.151   3.876  0.3061 -0.7548  0.0187
 2387SOL     OW 9550   4.274   1.299   3.789 -0.3201 -0.2919  0.7575
 2387SOL    HW2 9551   4.255   1.390   3.814  0.4139 -0.3384  1.5256
 2387SOL    HW3 9552   4.279   1.301   3.694  2.1750  1.0005  0.8641
 2387SOL    MW4 9553   4.272   1.312   3.780  0.1060 -0.1275  0.8729
 2388SOL     OW 9554   4.240   1.539   3.917  0.2545 -0.2282 -0.1279
 2388SOL    HW2 9555   4.161   1.581   3.883 -0.2357 -0.0063  1.2304
 2388SOL    HW3 9556   4.312   1.582   3.871 -0.3538  0.5610 -0.3555
 2388SOL    MW4 9557   4.239   1.550   3.907  0.1096 -0.0948  0.0213
 2389SOL     OW 9558   4.065   1.699   3.754  0.4432 -0.1075  0.5460
 2389SOL    HW2 9559   4.072   1.787   3.791  1.6223 -1.4099  3.5926
 2389SOL    HW3 9560   3.980   1.667   3.786 -0.8667  0.5214 -2.0999
 2389SOL    MW4 9561   4.054   1.706   3.763  0.4260 -0.1963  0.5988
 2390SOL     OW 9562   4.049   1.943   3.861 -0.1281  0.3148 -0.0582
 2390SOL    HW2 9563   4.035   1.938   3.956  1.6352 -0.5470  0.1809
 2390SOL    HW3 9564   4.134   1.986   3.852 -0.1112  0.0494 -1.2378
 2390SOL    MW4 9565   4.058   1.948   3.873  0.1068  0.1661 -0.1823
 2391SOL     OW 9566   4.300   2.066   3.832  0.4737 -0.6678 -0.1753
 2391SOL    HW2 9567   4.253   2.148   3.850  0.2284 -0.9924  0.6799
 2391SOL    HW3 9568   4.288   2.053   3.738  0.8187  0.4632 -0.3830
 2391SOL    MW4 9569   4.292   2.075   3.822  0.4868 -0.5614 -0.0898
 2392SOL     OW 9570   4.203   2.322   3.869 -0.1265 -0.0683  0.0846
 2392SOL    HW2 9571   4.212   2.334   3.964 -1.6768  0.9885  0.1124
 2392SOL    HW3 9572   4.117   2.358   3.848 -0.4765 -1.7906 -1.4998
 2392SOL    MW4 9573   4.193   2.329   3.879 -0.3772 -0.1561 -0.1208
 2393SOL     OW 9574   3.973   2.438   3.778 -0.2184 -0.1400 -0.0358
 2393SOL    HW2 9575   3.992   2.518   3.826  1.0582 -1.0117  0.9617
 2393SOL    HW3 9576   3.907   2.393   3.831 -1.6146  0.6630 -1.0650
 2393SOL    MW4 9577   3.967   2.442   3.791 -0.2342 -0.1491 -0.0400
 2394SOL     OW 9578   4.003   2.674   3.924 -0.6435  0.1675  0.1722
 2394SOL    HW2 9579   3.998   2.685   4.019  1.4259 -0.8784  0.4496
 2394SOL    HW3 9580   4.093   2.700   3.902 -0.8339 -0.4261 -1.3696
 2394SOL    MW4 9581   4.015   2.678   3.934 -0.3956 -0.0488  0.0053
 2395SOL     OW 9582   4.240   2.813   3.831  0.0819 -0.1116 -0.0140
 2395SOL    HW2 9583   4.241   2.904   3.860 -2.7750 -0.4330  1.2891
 2395SOL    HW3 9584   4.323   2.777   3.864  1.1727  1.9386 -0.4141
 2395SOL    MW4 9585   4.251   2.820   3.839 -0.1511  0.1165  0.1051
 2396SOL     OW 9586   4.289   3.076   3.883  0.2154 -0.3775 -0.4692
 2396SOL    HW2 9587   4.211   3.128   3.861  0.8702  1.2482  0.9506
 2396SOL    HW3 9588   4.362   3.124   3.845  0.7253 -0.8849 -0.1440
 2396SOL    MW4 9589   4.288   3.089   3.875  0.3691 -0.2300 -0.2389
 2397SOL     OW 9590   4.053   3.214   3.827  0.1219  0.4086 -0.0547
 2397SOL    HW2 9591   3.982   3.155   3.853  0.4717 -0.6462 -1.4607
 2397SOL    HW3 9592   4.039   3.230   3.734  1.3811  0.6706 -0.2145
 2397SOL    MW4 9593   4.042   3.208   3.819  0.3342  0.3040 -0.2613
 2398SOL     OW 9594   4.055   3.476   3.931 -0.0159 -0.2652  0.0374
 2398SOL    HW2 9595   4.061   3.385   3.902  2.6388  0.2215 -1.0563
 2398SOL    HW3 9596   3.981   3.512   3.884  0.1730 -1.3149 -1.0771
 2398SOL    MW4 9597   4.046   3.469   3.921  0.3593 -0.3394 -0.2539
 2399SOL     OW 9598   4.268   3.598   3.780 -0.1139 -0.0861  0.0360
 2399SOL    HW2 9599   4.205   3.543   3.826  0.6396 -1.2084 -0.2467
 2399SOL    HW3 9600   4.352   3.553   3.790  0.2589  0.2078 -1.4897
 2399SOL    MW4 9601   4.271   3.585   3.787  0.0347 -0.1954 -0.2026
 2400SOL     OW 9602   4.290   3.855   3.882  0.3288  0.5542  0.3054
 2400SOL    HW2 9603   4.200   3.882   3.860  0.8588  1.3108 -0.9859
 2400SOL    HW3 9604   4.292   3.762   3.861  0.2563  0.8495 -1.0490
 2400SOL    MW4 9605   4.278   3.846   3.876  0.3892  0.6930 -0.0437
 2401SOL     OW 9606   4.042   3.940   3.796  0.1482 -0.7099 -0.2916
 2401SOL    HW2 9607   4.043   4.034   3.812  2.4896 -0.5075 -1.3983
 2401SOL    HW3 9608   4.036   3.932   3.701 -0.0023 -1.6770 -0.2085
 2401SOL    MW4 9609   4.041   3.951   3.785  0.4373 -0.8108 -0.4267
 2402SOL     OW 9610   4.047   4.215   3.832  0.3033  0.1562 -0.5123
 2402SOL    HW2 9611   4.049   4.214   3.928  0.2326  0.1512 -0.5110
 2402SOL    HW3 9612   4.106   4.286   3.808 -0.4422  0.8118 -0.4413
 2402SOL    MW4 9613   4.055   4.224   3.842  0.1956  0.2421 -0.5028
 2403SOL     OW 9614   4.242   4.396   3.762  0.2035  0.1528 -0.0608
 2403SOL    HW2 9615   4.266   4.470   3.818  0.6890  0.0268 -0.1062
 2403SOL    HW3 9616   4.308   4.329   3.781 -0.8763 -0.6825  0.8109
 2403SOL    MW4 9617   4.254   4.397   3.772  0.1251  0.0260  0.0482
 2404SOL     OW 9618   0.198   4.624   4.159  0.3548  0.0329 -0.0166
 2404SOL    HW2 9619   0.282   4.667   4.173  0.5721 -0.8577  1.5027
 2404SOL    HW3 9620   0.220   4.531   4.154 -0.4065 -0.1111 -0.7840
 2404SOL    MW4 9621   0.212   4.617   4.160  0.2830 -0.1036  0.0826
 2405SOL     OW 9622   0.002   0.114   4.263 -0.1098  0.3591 -0.7973
 2405SOL    HW2 9623   0.020   0.119   4.356 -0.6312 -0.0325 -0.6725
 2405SOL    HW3 9624   0.073   0.062   4.226  0.9176  1.7817 -0.8531
 2405SOL    MW4 9625   0.013   0.108   4.270 -0.0431  0.4951 -0.7882
 2406SOL     OW 9626   0.024   0.372   4.167  0.1990  0.1789 -0.1150
 2406SOL    HW2 9627   0.035   0.283   4.198  0.6790  0.3484  0.2073
 2406SOL    HW3 9628   0.015   0.364   4.072 -0.4109 -0.2650 -0.0176
 2406SOL    MW4 9629   0.024   0.359   4.158  0.1819  0.1427 -0.0596
 2407SOL     OW 9630   0.261   0.515   4.229 -0.2249  0.1971 -0.5652
 2407SOL    HW2 9631   0.328   0.465   4.183  0.1700  0.1569  0.0439
 2407SOL    HW3 9632   0.180   0.467   4.214  0.0088 -0.1576 -0.6911
 2407SOL    MW4 9633   0.259   0.502   4.221 -0.1420  0.1450 -0.5015
 2408SOL     OW 9634   0.235   0.786   4.166 -0.5392 -0.1767  0.4072
 2408SOL    HW2 9635   0.148   0.803   4.201 -0.7010 -0.4441  0.1352
 2408SOL    HW3 9636   0.246   0.692   4.174 -0.3542 -0.1684  0.2559
 2408SOL    MW4 9637   0.225   0.776   4.171 -0.5362 -0.2109  0.3514
 2409SOL     OW 9638   4.449   0.895   4.258 -0.2865 -0.0090 -0.1374
 2409SOL    HW2 9639   4.376   0.847   4.218  0.4760 -0.0063 -1.5638
 2409SOL    HW3 9640   4.456   0.975   4.207  1.8885 -0.8498 -1.1968
 2409SOL    MW4 9641   4.440   0.899   4.246  0.1011 -0.1196 -0.4654
 2410SOL     OW 9642   4.464   1.138   4.137 -0.4636  0.1226 -0.1559
 2410SOL    HW2 9643   4.547   1.174   4.169  0.3143 -0.1672 -1.7616
 2410SOL    HW3 9644   4.470   1.145   4.042 -1.5780 -1.4296 -0.3734
 2410SOL    MW4 9645   4.476   1.143   4.129 -0.5080 -0.1204 -0.3964
 2411SOL     OW 9646   0.226   1.240   4.233  0.1245  0.2449  0.3425
 2411SOL    HW2 9647   0.222   1.227   4.328  1.0486  2.2562  0.6853
 2411SOL    HW3 9648   0.313   1.210   4.208 -0.8783 -2.2811 -0.2255
 2411SOL    MW4 9649   0.237   1.234   4.242  0.1141  0.1770  0.3128
 2412SOL     OW 9650   0.177   1.388   4.690 -0.1326  0.2427  0.0415
 2412SOL    HW2 9651   0.261   1.397   4.736  0.3223  0.8032 -0.8992
 2412SOL    HW3 9652   0.169   1.468   4.639 -1.9575  0.8938  1.2919
 2412SOL    MW4 9653   0.187   1.400   4.690 -0.3133  0.4026  0.0823
 2413SOL     OW 9654   4.470   1.623   4.310  0.6180 -0.0870 -0.2866
 2413SOL    HW2 9655   4.389   1.582   4.280  1.0337 -0.9536 -0.2334
 2413SOL    HW3 9656   4.456   1.716   4.296 -1.0272 -0.0737  1.2717
 2413SOL    MW4 9657   4.458   1.630   4.304  0.4558 -0.1996 -0.0740
 2414SOL     OW 9658   0.196   2.025   4.301  0.1543 -0.1876 -0.1710
 2414SOL    HW2 9659   0.198   2.000   4.393  0.0425  1.1402  0.2057
 2414SOL    HW3 9660   0.265   1.973   4.260 -0.3033 -1.3436  0.5114
 2414SOL    MW4 9661   0.205   2.015   4.308  0.0792 -0.1649 -0.0313
 2415SOL     OW 9662   0.208   1.911   4.551  0.0047  0.0597 -0.4223
 2415SOL    HW2 9663   0.116   1.937   4.560  0.2319  0.0869  2.2599
 2415SOL    HW3 9664   0.255   1.973   4.606  1.2974 -1.8123  0.6074
 2415SOL    MW4 9665   0.202   1.923   4.559  0.2052 -0.1837  0.0674
 2416SOL     OW 9666   0.206   2.267   4.154 -0.1867  0.1227 -0.1968
 2416SOL    HW2 9667   0.278   2.309   4.201 -1.8537  1.3606  1.2826
 2416SOL    HW3 9668   0.186   2.189   4.205  0.8092 -0.8139 -1.2123
 2416SOL    MW4 9669   0.213   2.262   4.167 -0.2752  0.1624 -0.1356
 2417SOL     OW 9670   4.462   2.409   4.293 -0.3431  0.2234  0.2710
 2417SOL    HW2 9671   4.398   2.365   4.237 -1.0562  1.3420  0.1813
 2417SOL    HW3 9672   4.546   2.369   4.270 -0.4479  1.5093 -2.4810
 2417SOL    MW4 9673   4.465   2.398   4.283 -0.4510  0.5407 -0.1039
 2418SOL     OW 9674   4.488   2.663   4.204 -0.5868 -0.3123  0.0516
 2418SOL    HW2 9675   4.573   2.701   4.228 -0.6303 -0.3329  0.2388
 2418SOL    HW3 9676   4.491   2.574   4.238  0.0888 -0.9539 -1.6799
 2418SOL    MW4 9677   4.499   2.656   4.212 -0.5034 -0.3997 -0.1522
 2419SOL     OW 9678   0.227   2.776   4.280  0.1867 -0.4416 -0.2075
 2419SOL    HW2 9679   0.297   2.736   4.228  1.1248  0.4533  0.3475
 2419SOL    HW3 9680   0.215   2.862   4.241 -0.7108 -0.6508 -0.3889
 2419SOL    MW4 9681   0.235   2.782   4.268  0.1921 -0.3511 -0.1582
 2420SOL     OW 9682   0.168   3.046   4.176  0.3824  0.6112 -0.2176
 2420SOL    HW2 9683   0.248   3.096   4.178 -0.3703  1.7839  0.7215
 2420SOL    HW3 9684   0.101   3.104   4.212 -0.1775 -1.6404  2.5402
 2420SOL    MW4 9685   0.169   3.060   4.181  0.2092  0.4688  0.2702
 2421SOL     OW 9686   4.469   3.201   4.304  0.4321  0.3288 -0.1517
 2421SOL    HW2 9687   4.384   3.167   4.274  1.2535 -0.5105 -1.5777
 2421SOL    HW3 9688   4.474   3.289   4.266 -0.5662  1.1008  1.4290
 2421SOL    MW4 9689   4.458   3.208   4.295  0.4088  0.3199 -0.1313
 2422SOL     OW 9690   4.478   3.448   4.152  0.0981  0.5562  0.0066
 2422SOL    HW2 9691   4.419   3.517   4.183  1.1801  1.9424 -0.9655
 2422SOL    HW3 9692   4.488   3.465   4.058  0.9749 -0.4714 -0.1008
 2422SOL    MW4 9693   4.472   3.459   4.143  0.3565  0.6035 -0.1358
 2423SOL     OW 9694   0.210   3.607   4.254 -0.1689  0.8150  0.1277
 2423SOL    HW2 9695   0.281   3.561   4.210 -0.7149 -1.4565  1.4862
 2423SOL    HW3 9696   0.131   3.559   4.228 -0.7964  1.1381  1.3836
 2423SOL    MW4 9697   0.209   3.595   4.245 -0.3237  0.5579  0.4726
 2424SOL     OW 9698   0.238   3.867   4.138  0.5890 -0.2767  0.1461
 2424SOL    HW2 9699   0.169   3.916   4.181  0.1947  0.2420 -1.0541
 2424SOL    HW3 9700   0.229   3.778   4.171 -0.4802 -0.1512  0.2004
 2424SOL    MW4 9701   0.228   3.862   4.148  0.3959 -0.1917 -0.0051
 2425SOL     OW 9702   0.024   4.030   4.232 -0.5053 -0.6535 -0.2104
 2425SOL    HW2 9703   0.013   4.034   4.327  0.5186 -2.6370  0.0196
 2425SOL    HW3 9704  -0.046   3.973   4.202 -1.1365  0.3860 -0.7082
 2425SOL    MW4 9705   0.013   4.023   4.241 -0.4535 -0.7781 -0.2457
 2426SOL     OW 9706   0.012   4.305   4.106 -0.4564  0.0980 -0.0792
 2426SOL    HW2 9707   0.003   4.216   4.138  1.1505 -0.2086 -0.4346
 2426SOL    HW3 9708   0.015   4.297   4.011  0.7571  0.4098 -0.0807
 2426SOL    MW4 9709   0.011   4.292   4.098 -0.0842  0.0987 -0.1263
 2427SOL     OW 9710   0.253   4.362   4.228  0.3408 -0.3521 -0.0563
 2427SOL    HW2 9711   0.250   4.391   4.320  1.5449 -0.2347 -0.0395
 2427SOL    HW3 9712   0.164   4.333   4.209  0.1464 -0.6432  1.2359
 2427SOL    MW4 9713   0.241   4.362   4.238  0.4740 -0.3750  0.1164
 2428SOL     OW 9714   0.644   4.651   4.134  0.6082 -0.3361  0.5842
 2428SOL    HW2 9715   0.566   4.693   4.170  0.4279 -1.0090  1.0032
 2428SOL    HW3 9716   0.653   4.687   4.046  0.3727  0.4542  0.8850
 2428SOL    MW4 9717   0.634   4.661   4.127  0.5533 -0.3206  0.6792
 2429SOL     OW 9718   0.415   0.101   4.243  0.0274  0.4650 -0.2998
 2429SOL    HW2 9719   0.451   0.098   4.331 -0.7223 -0.0103 -0.0063
 2429SOL    HW3 9720   0.434   0.190   4.212 -0.0077  0.7373  0.4623
 2429SOL    MW4 9721   0.422   0.112   4.250 -0.0762  0.4382 -0.1605
 2430SOL     OW 9722   0.450   0.337   4.124  0.4631  0.5769 -0.0321
 2430SOL    HW2 9723   0.540   0.364   4.145  1.0467 -0.3434 -1.2830
 2430SOL    HW3 9724   0.446   0.342   4.029 -1.5349  2.8202  0.1257
 2430SOL    MW4 9725   0.462   0.341   4.114  0.2765  0.7515 -0.1763
 2431SOL     OW 9726   0.683   0.476   4.262  0.2013  0.1095 -0.1226
 2431SOL    HW2 9727   0.762   0.433   4.230  0.1728  0.1935 -0.3045
 2431SOL    HW3 9728   0.690   0.566   4.232 -0.3591 -0.0884 -0.8448
 2431SOL    MW4 9729   0.694   0.482   4.254  0.1236  0.0945 -0.2419
 2432SOL     OW 9730   0.673   0.765   4.160  0.2714  0.2301  0.4650
 2432SOL    HW2 9731   0.594   0.797   4.204  0.9675  2.8548 -0.1447
 2432SOL    HW3 9732   0.643   0.742   4.072 -0.0761 -0.0440  0.6527
 2432SOL    MW4 9733   0.659   0.766   4.155  0.3174  0.5403  0.4093
 2433SOL     OW 9734   0.446   0.866   4.320 -0.3931 -0.2648  0.3215
 2433SOL    HW2 9735   0.465   0.952   4.283 -2.4227  0.5120  1.0417
 2433SOL    HW3 9736   0.374   0.832   4.268 -1.1290 -0.5376  1.4935
 2433SOL    MW4 9737   0.439   0.873   4.308 -0.7580 -0.1983  0.5712
 2434SOL     OW 9738   0.463   1.116   4.163 -0.0834 -0.7098  0.0146
 2434SOL    HW2 9739   0.531   1.176   4.194 -3.4326  2.1333  2.2381
 2434SOL    HW3 9740   0.472   1.116   4.068  2.1253  0.6497  0.1845
 2434SOL    MW4 9741   0.473   1.124   4.155 -0.2339 -0.1553  0.3304
 2435SOL     OW 9742   0.674   1.281   4.253  0.1201 -0.2610  0.4492
 2435SOL    HW2 9743   0.690   1.278   4.347  0.9866 -0.2389  0.3121
 2435SOL    HW3 9744   0.646   1.371   4.237 -1.5562 -0.6817  0.9049
 2435SOL    MW4 9745   0.673   1.293   4.263  0.0133 -0.3136  0.4912
 2436SOL     OW 9746   0.627   1.531   4.181 -0.3389 -0.2661  0.0190
 2436SOL    HW2 9747   0.690   1.595   4.215 -0.9252 -0.6330  1.8814
 2436SOL    HW3 9748   0.641   1.531   4.087  0.3315  1.8982  0.0951
 2436SOL    MW4 9749   0.637   1.539   4.173 -0.3278 -0.0290  0.2748
 2437SOL     OW 9750   0.173   1.495   4.166  0.0598 -0.1133  0.1811
 2437SOL    HW2 9751   0.182   1.406   4.199  0.9321 -0.0139  0.2174
 2437SOL    HW3 9752   0.106   1.535   4.221  0.5581 -0.3601  0.9796
 2437SOL    MW4 9753   0.165   1.489   4.177  0.2406 -0.1328  0.2912
 2438SOL     OW 9754   0.403   1.922   4.136  0.3817  0.0338  0.0795
 2438SOL    HW2 9755   0.398   1.831   4.167  0.6558  0.3252  0.9747
 2438SOL    HW3 9756   0.409   1.914   4.040  0.7525 -0.9002  0.1784
 2438SOL    MW4 9757   0.403   1.909   4.127  0.4668 -0.0510  0.2107
 2439SOL     OW 9758   0.625   2.070   4.221  0.0624  0.0095 -0.1239
 2439SOL    HW2 9759   0.633   2.046   4.313 -1.0473  0.0411 -0.0181
 2439SOL    HW3 9760   0.542   2.032   4.193 -0.6148  1.7436 -0.5579
 2439SOL    MW4 9761   0.615   2.062   4.229 -0.1734  0.2425 -0.1672
 2440SOL     OW 9762   0.657   2.338   4.131 -0.1959  0.0684  0.0734
 2440SOL    HW2 9763   0.643   2.244   4.146 -0.3730 -0.0864 -1.0051
 2440SOL    HW3 9764   0.638   2.350   4.038  1.0507  0.9576 -0.0768
 2440SOL    MW4 9765   0.652   2.327   4.120 -0.0548  0.1653 -0.0887
 2441SOL     OW 9766   0.422   2.425   4.283  0.1711 -0.3871 -0.6052
 2441SOL    HW2 9767   0.395   2.500   4.230  0.6010  0.6077  0.5620
 2441SOL    HW3 9768   0.511   2.406   4.254  0.1839 -0.2362 -0.6635
 2441SOL    MW4 9769   0.430   2.432   4.272  0.2295 -0.2360 -0.4589
 2442SOL     OW 9770   0.425   2.648   4.134  0.5108  0.5488  0.6037
 2442SOL    HW2 9771   0.504   2.680   4.179  1.2373 -1.3254  0.6978
 2442SOL    HW3 9772   0.436   2.677   4.044  2.1215 -1.0788  0.2504
 2442SOL    MW4 9773   0.437   2.656   4.128  0.8192  0.0868  0.5695
 2443SOL     OW 9774   0.643   2.792   4.239 -0.5750 -0.6845 -0.3477
 2443SOL    HW2 9775   0.649   2.777   4.333  1.4218  0.4706 -0.2710
 2443SOL    HW3 9776   0.621   2.885   4.231 -2.0757 -1.0774 -1.0169
 2443SOL    MW4 9777   0.641   2.802   4.250 -0.5095 -0.5840 -0.4259
 2444SOL     OW 9778   0.596   3.058   4.156 -0.5621 -0.4844  0.6995
 2444SOL    HW2 9779   0.685   3.075   4.186  0.1267  1.4326 -2.1666
 2444SOL    HW3 9780   0.543   3.126   4.198  0.1213  1.1504 -0.9851
 2444SOL    MW4 9781   0.601   3.069   4.165 -0.3810 -0.0158  0.0991
 2445SOL     OW 9782   0.389   3.225   4.258 -0.0994  0.0701 -0.5125
 2445SOL    HW2 9783   0.408   3.219   4.351 -0.0101 -1.3943 -0.6151
 2445SOL    HW3 9784   0.401   3.318   4.237  1.1728  0.1849  0.6451
 2445SOL    MW4 9785   0.393   3.237   4.267  0.0802 -0.1079 -0.3733
 2446SOL     OW 9786   0.433   3.493   4.148 -0.1207 -0.0547 -0.2140
 2446SOL    HW2 9787   0.520   3.524   4.174 -0.2865 -0.2407  0.5746
 2446SOL    HW3 9788   0.444   3.465   4.057  0.2023  1.6766 -0.7425
 2446SOL    MW4 9789   0.446   3.493   4.139 -0.0999  0.1492 -0.1797
 2447SOL     OW 9790   0.690   3.551   4.216 -0.6076 -0.3076  0.0666
 2447SOL    HW2 9791   0.671   3.555   4.310  1.2168  1.3932  0.4072
 2447SOL    HW3 9792   0.766   3.494   4.210 -0.4496 -0.0535 -0.3375
 2447SOL    MW4 9793   0.697   3.544   4.227 -0.3460 -0.0497  0.0582
 2448SOL     OW 9794   0.744   3.824   4.153 -0.2667  0.1739 -0.1961
 2448SOL    HW2 9795   0.654   3.854   4.157 -0.2844  0.0030  0.6990
 2448SOL    HW3 9796   0.740   3.730   4.170  0.1711  0.3325  0.8515
 2448SOL    MW4 9797   0.732   3.816   4.155 -0.2113  0.1723  0.0602
 2449SOL     OW 9798   0.502   3.960   4.179 -0.2679 -0.1886  0.1673
 2449SOL    HW2 9799   0.489   4.052   4.156  3.1251  0.1282 -0.7752
 2449SOL    HW3 9800   0.415   3.920   4.168 -1.9072  2.9554  1.0626
 2449SOL    MW4 9801   0.489   3.967   4.174 -0.0365  0.2680  0.1610
 2450SOL     OW 9802   0.460   4.231   4.110  0.0328 -0.1034 -0.6140
 2450SOL    HW2 9803   0.387   4.288   4.132  0.4685  0.5248 -0.7822
 2450SOL    HW3 9804   0.465   4.234   4.014 -0.5631 -1.2083 -0.6946
 2450SOL    MW4 9805   0.451   4.239   4.100  0.0116 -0.1663 -0.6468
 2451SOL     OW 9806   0.672   4.372   4.247  0.0648  0.3228  0.1108
 2451SOL    HW2 9807   0.609   4.309   4.212  0.2781  0.0573  0.2015
 2451SOL    HW3 9808   0.654   4.453   4.199 -0.8124  0.4417  0.6422
 2451SOL    MW4 9809   0.662   4.374   4.236 -0.0228  0.3034  0.1929
 2452SOL     OW 9810   1.127   4.641   4.129 -0.0613 -0.5806  0.0441
 2452SOL    HW2 9811   1.127   4.551   4.162 -0.9806 -1.2256 -1.6361
 2452SOL    HW3 9812   1.102   4.632   4.036 -2.9769  1.6292  0.5362
 2452SOL    MW4 9813   1.124   4.628   4.121 -0.5673 -0.3742 -0.1127
 2453SOL     OW 9814   0.894   0.093   4.183 -0.3293 -0.1799 -0.2849
 2453SOL    HW2 9815   0.978   0.052   4.164 -0.8048 -1.6499  0.7175
 2453SOL    HW3 9816   0.829   0.034   4.145 -1.0494 -0.6785  1.6640
 2453SOL    MW4 9817   0.897   0.080   4.176 -0.4870 -0.4396  0.1045
 2454SOL     OW 9818   0.888   0.380   4.133 -0.6371  0.6096  0.2441
 2454SOL    HW2 9819   0.961   0.419   4.182  1.4046  0.3114 -2.4108
 2454SOL    HW3 9820   0.898   0.286   4.148 -2.2170  0.7023  2.1303
 2454SOL    MW4 9821   0.899   0.373   4.142 -0.5761  0.5825  0.1427
 2455SOL     OW 9822   1.093   0.500   4.288  0.0466  0.4094  0.0848
 2455SOL    HW2 9823   1.118   0.519   4.378 -1.0359 -1.1626  0.7332
 2455SOL    HW3 9824   1.167   0.450   4.253  0.2802  0.6503  0.2348
 2455SOL    MW4 9825   1.106   0.496   4.295 -0.0654  0.2337  0.1902
 2456SOL     OW 9826   1.109   0.753   4.166  0.0591  0.2490 -0.1294
 2456SOL    HW2 9827   1.183   0.802   4.203 -0.0704  0.1222  0.2957
 2456SOL    HW3 9828   1.108   0.670   4.215 -0.1546  0.1085 -0.3698
 2456SOL    MW4 9829   1.119   0.748   4.177  0.0138  0.2137 -0.1050
 2457SOL     OW 9830   0.902   0.898   4.285 -0.3412 -0.3457 -0.5202
 2457SOL    HW2 9831   0.977   0.849   4.250 -1.2637 -1.9007 -0.3675
 2457SOL    HW3 9832   0.826   0.855   4.247 -1.3313 -1.4008  2.5150
 2457SOL    MW4 9833   0.902   0.886   4.275 -0.5936 -0.6900 -0.0996
 2458SOL     OW 9834   0.866   1.134   4.132 -0.1162  0.3983  0.3089
 2458SOL    HW2 9835   0.876   1.058   4.190  1.5755  1.1692  1.0726
 2458SOL    HW3 9836   0.796   1.185   4.172  0.5269  0.5454  1.2894
 2458SOL    MW4 9837   0.858   1.131   4.145  0.1918  0.5194  0.5390
 2459SOL     OW 9838   1.097   1.264   4.242 -0.4396  0.4309  0.2890
 2459SOL    HW2 9839   1.108   1.240   4.334  0.6358 -0.0970  0.0225
 2459SOL    HW3 9840   1.029   1.205   4.210  0.2742 -0.4289  0.3490
 2459SOL    MW4 9841   1.089   1.253   4.250 -0.2035  0.2478  0.2618
 2460SOL     OW 9842   1.095   1.526   4.142  0.0284  0.1580  0.7277
 2460SOL    HW2 9843   1.042   1.574   4.206  0.5165  0.9508  0.5466
 2460SOL    HW3 9844   1.090   1.435   4.170 -0.8578  0.3273  1.1167
 2460SOL    MW4 9845   1.088   1.520   4.154 -0.0241  0.2849  0.7551
 2461SOL     OW 9846   0.901   1.648   4.275  0.2127 -0.3757  0.2234
 2461SOL    HW2 9847   0.861   1.643   4.361  1.1160  0.6816  0.7139
 2461SOL    HW3 9848   0.894   1.740   4.250  0.9504 -0.4659 -0.3474
 2461SOL    MW4 9849   0.895   1.659   4.283  0.4292 -0.2481  0.2128
 2462SOL     OW 9850   0.841   1.900   4.154 -0.1393 -0.2288 -0.1866
 2462SOL    HW2 9851   0.760   1.949   4.171 -0.1636  0.0191 -0.9828
 2462SOL    HW3 9852   0.855   1.910   4.060  1.1514  0.2467  0.0500
 2462SOL    MW4 9853   0.832   1.908   4.144  0.0278 -0.1334 -0.2604
 2463SOL     OW 9854   1.097   2.053   4.203  0.0991  0.0063  0.4248
 2463SOL    HW2 9855   1.107   2.063   4.297 -0.6366 -0.1381  0.5216
 2463SOL    HW3 9856   1.011   2.014   4.192 -0.2315  0.9174 -0.3469
 2463SOL    MW4 9857   1.087   2.049   4.214 -0.0416  0.1074  0.3358
 2464SOL     OW 9858   1.096   2.314   4.126  0.0467 -0.1106 -0.2903
 2464SOL    HW2 9859   1.170   2.359   4.167 -0.7407 -0.0014  1.0303
 2464SOL    HW3 9860   1.098   2.226   4.162 -0.2939 -0.1978 -0.4771
 2464SOL    MW4 9861   1.106   2.309   4.136 -0.1021 -0.1077 -0.1407
 2465SOL     OW 9862   0.882   2.430   4.240  0.0582  0.0819 -0.2803
 2465SOL    HW2 9863   0.961   2.401   4.194  0.1790  2.7203 -1.8370
 2465SOL    HW3 9864   0.811   2.380   4.200  0.4792  0.5338 -1.6152
 2465SOL    MW4 9865   0.883   2.420   4.229  0.1297  0.4896 -0.6618
 2466SOL     OW 9866   0.851   2.663   4.113  0.3530 -0.0120  0.0580
 2466SOL    HW2 9867   0.858   2.580   4.160  1.5886  0.4893  0.7647
 2466SOL    HW3 9868   0.770   2.702   4.146 -0.0759 -0.7887 -0.0562
 2466SOL    MW4 9869   0.841   2.657   4.123  0.4594 -0.0483  0.1362
 2467SOL     OW 9870   1.087   2.716   4.285  0.1006  0.2036  0.8910
 2467SOL    HW2 9871   1.092   2.808   4.261 -0.3474  0.1482  0.5718
 2467SOL    HW3 9872   1.017   2.681   4.230  2.1164 -0.9724 -1.0314
 2467SOL    MW4 9873   1.078   2.723   4.275  0.3074  0.0411  0.5953
 2468SOL     OW 9874   1.101   2.961   4.159 -0.8293  0.2909  0.3042
 2468SOL    HW2 9875   1.161   3.018   4.207  0.0362 -0.7393  0.4611
 2468SOL    HW3 9876   1.115   2.984   4.067  0.8891 -0.9513  0.2298
 2468SOL    MW4 9877   1.111   2.972   4.153 -0.4884 -0.0089  0.3151
 2469SOL     OW 9878   0.867   3.112   4.212 -0.2272  0.1830  0.5819
 2469SOL    HW2 9879   0.870   3.114   4.308 -0.8208 -2.0522  0.6770
 2469SOL    HW3 9880   0.932   3.046   4.187  0.5485  1.3753 -0.6134
 2469SOL    MW4 9881   0.876   3.104   4.222 -0.2032  0.0454  0.4368
 2470SOL     OW 9882   0.923   3.396   4.184 -0.1894  0.2576 -0.7375
 2470SOL    HW2 9883   0.907   3.302   4.178  0.3868  0.2534 -2.3939
 2470SOL    HW3 9884   0.932   3.426   4.094 -0.1933  1.8803 -0.2310
 2470SOL    MW4 9885   0.922   3.388   4.172 -0.1139  0.4711 -0.8892
 2471SOL     OW 9886   1.367   3.415   4.647 -0.0934 -0.1785 -0.3370
 2471SOL    HW2 9887   1.448   3.364   4.644  0.6155  0.9200  0.2565
 2471SOL    HW3 9888   1.305   3.363   4.595  0.9946 -0.9997 -0.8352
 2471SOL    MW4 9889   1.369   3.401   4.640  0.1437 -0.1419 -0.3244
 2472SOL     OW 9890   1.176   3.841   4.135 -0.7733  0.6220 -0.1510
 2472SOL    HW2 9891   1.223   3.900   4.194 -0.0574  0.3401 -0.4369
 2472SOL    HW3 9892   1.084   3.864   4.147 -0.5874  0.9889  0.6156
 2472SOL    MW4 9893   1.170   3.852   4.144 -0.6543  0.6333 -0.0876
 2473SOL     OW 9894   0.943   4.004   4.205 -0.0062 -0.2803  0.2055
 2473SOL    HW2 9895   0.927   4.092   4.170  1.2683 -0.0841  0.0872
 2473SOL    HW3 9896   0.871   3.951   4.171 -0.6735  0.6692  0.1077
 2473SOL    MW4 9897   0.931   4.009   4.196  0.0739 -0.1292  0.1770
 2474SOL     OW 9898   0.902   4.268   4.154 -0.4376 -0.3420 -0.2624
 2474SOL    HW2 9899   0.965   4.305   4.216 -0.3247 -0.4828 -0.2920
 2474SOL    HW3 9900   0.817   4.297   4.186 -0.3654 -0.2425 -0.1588
 2474SOL    MW4 9901   0.899   4.277   4.166 -0.4132 -0.3474 -0.2526
 2475SOL     OW 9902   1.132   4.397   4.263  0.0530  0.1249  0.6123
 2475SOL    HW2 9903   1.140   4.405   4.358 -0.1473 -0.4612  0.6829
 2475SOL    HW3 9904   1.204   4.340   4.237  0.6963  1.0650  0.2837
 2475SOL    MW4 9905   1.143   4.391   4.272  0.1115  0.1716  0.5783
 2476SOL     OW 9906   1.529   4.653   4.133  0.1860 -0.5646 -0.0550
 2476SOL    HW2 9907   1.610   4.677   4.177 -0.6788  1.1478  0.6757
 2476SOL    HW3 9908   1.461   4.702   4.180 -1.3436 -2.4141 -0.2672
 2476SOL    MW4 9909   1.531   4.663   4.145 -0.1299 -0.5827  0.0134
 2477SOL     OW 9910   1.307   0.131   4.263 -0.4062  0.1340 -0.2488
 2477SOL    HW2 9911   1.310   0.087   4.348 -0.4124 -0.4082 -0.5229
 2477SOL    HW3 9912   1.241   0.082   4.213  0.8617 -0.6949 -1.1800
 2477SOL    MW4 9913   1.299   0.119   4.267 -0.2397 -0.0469 -0.4078
 2478SOL     OW 9914   1.287   0.380   4.151  0.0836 -0.3159 -0.3976
 2478SOL    HW2 9915   1.368   0.424   4.176 -0.5380  1.0282 -0.7260
 2478SOL    HW3 9916   1.287   0.298   4.202  0.4502  0.8204  1.4904
 2478SOL    MW4 9917   1.297   0.375   4.161  0.0500  0.0114 -0.1918
 2479SOL     OW 9918   1.534   0.484   4.244 -0.4821 -0.2556  0.6531
 2479SOL    HW2 9919   1.546   0.498   4.338 -1.3500 -0.3050  0.7749
 2479SOL    HW3 9920   1.528   0.572   4.208  1.0192 -0.2171  0.4845
 2479SOL    MW4 9921   1.535   0.498   4.252 -0.3986 -0.2570  0.6469
 2480SOL     OW 9922   1.519   0.760   4.144 -0.5519  0.0431  0.9104
 2480SOL    HW2 9923   1.601   0.808   4.158 -0.1562 -0.5974  0.7984
 2480SOL    HW3 9924   1.516   0.745   4.049 -1.5504  1.3918  0.7069
 2480SOL    MW4 9925   1.529   0.764   4.133 -0.6315  0.1365  0.8688
 2481SOL     OW 9926   1.324   0.894   4.271  0.4388 -0.0950 -0.4366
 2481SOL    HW2 9927   1.320   0.979   4.229 -0.8567 -1.0722 -2.3681
 2481SOL    HW3 9928   1.402   0.853   4.234  1.3870  0.4674  0.9268
 2481SOL    MW4 9929   1.334   0.900   4.260  0.3930 -0.1498 -0.5115
 2482SOL     OW 9930   1.346   1.154   4.165  0.0815 -0.0822  0.2796
 2482SOL    HW2 9931   1.259   1.189   4.185 -0.1738 -0.4549 -0.1277
 2482SOL    HW3 9932   1.349   1.153   4.069  0.6357  0.1626  0.2927
 2482SOL    MW4 9933   1.335   1.158   4.155  0.1209 -0.0990  0.2276
 2483SOL     OW 9934   1.557   1.276   4.297  0.5104  0.2203 -0.2177
 2483SOL    HW2 9935   1.560   1.296   4.390 -1.7195  2.1710 -0.5157
 2483SOL    HW3 9936   1.473   1.231   4.284  0.7085  0.1331 -1.3153
 2483SOL    MW4 9937   1.547   1.272   4.307  0.2423  0.4662 -0.4019
 2484SOL     OW 9938   1.562   1.532   4.174  0.3821  0.1228 -0.1696
 2484SOL    HW2 9939   1.489   1.585   4.208  0.0963 -1.1791  1.2771
 2484SOL    HW3 9940   1.562   1.453   4.228  0.8064 -1.3761 -2.2963
 2484SOL    MW4 9941   1.552   1.529   4.186  0.4004 -0.2467 -0.2593
 2485SOL     OW 9942   1.314   1.659   4.239 -0.1093 -0.6828 -0.1567
 2485SOL    HW2 9943   1.318   1.745   4.196  0.0475 -0.6352 -0.0481
 2485SOL    HW3 9944   1.233   1.619   4.206  0.7643 -1.2611 -1.6737
 2485SOL    MW4 9945   1.304   1.665   4.229  0.0267 -0.7528 -0.3425
 2486SOL     OW 9946   1.327   1.895   4.115  0.4388  0.2148 -0.1976
 2486SOL    HW2 9947   1.399   1.943   4.155  0.6940 -1.2402  1.1370
 2486SOL    HW3 9948   1.251   1.953   4.124  0.9848  0.8591  0.2843
 2486SOL    MW4 9949   1.327   1.909   4.121  0.5445  0.1079  0.0421
 2487SOL     OW 9950   1.517   2.062   4.249  0.0576 -0.2720 -0.3482
 2487SOL    HW2 9951   1.495   2.064   4.342  1.0759 -0.5277 -0.0978
 2487SOL    HW3 9952   1.535   2.153   4.226 -1.5690 -0.0094 -0.6394
 2487SOL    MW4 9953   1.516   2.074   4.258 -0.0227 -0.2711 -0.3535
 2488SOL     OW 9954   1.553   2.335   4.201  0.2286  0.1741  0.0877
 2488SOL    HW2 9955   1.639   2.372   4.222 -0.0951  0.9071  0.1425
 2488SOL    HW3 9956   1.548   2.335   4.106  0.3827 -0.0981  0.0779
 2488SOL    MW4 9957   1.564   2.340   4.192  0.2062  0.2349  0.0936
 2489SOL     OW 9958   1.299   2.449   4.265  0.0231  0.5289 -0.0629
 2489SOL    HW2 9959   1.315   2.537   4.230  1.1696  0.6820  0.8375
 2489SOL    HW3 9960   1.384   2.405   4.259 -0.1162  0.0787  1.1821
 2489SOL    MW4 9961   1.312   2.455   4.259  0.1560  0.4897  0.2201
 2490SOL     OW 9962   1.325   2.695   4.147 -0.3743  0.2851 -0.0619
 2490SOL    HW2 9963   1.387   2.752   4.191  0.9243 -2.4210  1.8085
 2490SOL    HW3 9964   1.244   2.703   4.199 -0.4764  1.1232 -0.3572
 2490SOL    MW4 9965   1.322   2.703   4.160 -0.2164  0.0387  0.1459
 2491SOL     OW 9966   1.560   2.832   4.255  0.0844  0.0421 -0.1900
 2491SOL    HW2 9967   1.559   2.854   4.348 -0.0766  0.2803 -0.2473
 2491SOL    HW3 9968   1.579   2.915   4.211  1.2320 -0.2790 -0.3141
 2491SOL    MW4 9969   1.562   2.846   4.261  0.2146  0.0312 -0.2140
 2492SOL     OW 9970   1.591   3.088   4.166 -0.1558  0.2486 -0.0774
 2492SOL    HW2 9971   1.639   3.135   4.234 -1.0572  0.1270  0.6475
 2492SOL    HW3 9972   1.499   3.098   4.190 -0.4023 -1.1801 -0.3650
 2492SOL    MW4 9973   1.585   3.095   4.178 -0.3073  0.0440 -0.0197
 2493SOL     OW 9974   1.323   3.118   4.271 -0.4681 -0.0552 -0.1705
 2493SOL    HW2 9975   1.339   3.089   4.361 -0.2629 -0.7003 -0.4091
 2493SOL    HW3 9976   1.284   3.205   4.281  1.3141  0.7033  0.4846
 2493SOL    MW4 9977   1.320   3.125   4.285 -0.2059 -0.0402 -0.1156
 2494SOL     OW 9978   1.289   3.551   4.148 -0.0194 -0.2605  0.0400
 2494SOL    HW2 9979   1.247   3.637   4.144  0.0301 -0.2340  0.0971
 2494SOL    HW3 9980   1.306   3.529   4.057 -0.1519 -0.2680  0.0160
 2494SOL    MW4 9981   1.285   3.559   4.135 -0.0303 -0.2580  0.0444
 2495SOL     OW 9982   1.552   3.636   4.222 -0.5537 -0.3503  0.1067
 2495SOL    HW2 9983   1.534   3.634   4.316  2.0931  0.0230  0.6491
 2495SOL    HW3 9984   1.471   3.602   4.182 -1.6702 -0.6331  2.4954
 2495SOL    MW4 9985   1.539   3.631   4.229 -0.3518 -0.3384  0.4934
 2496SOL     OW 9986   1.563   3.908   4.145  0.0602 -0.0150  0.1012
 2496SOL    HW2 9987   1.487   3.942   4.192  0.3250  0.6858  0.0199
 2496SOL    HW3 9988   1.574   3.819   4.179  0.0015  0.3431  1.0740
 2496SOL    MW4 9989   1.554   3.900   4.155  0.0874  0.1247  0.2188
 2497SOL     OW 9990   1.339   3.996   4.327  0.0761 -0.0860  0.0334
 2497SOL    HW2 9991   1.351   3.984   4.421  0.3164  0.2241  0.0431
 2497SOL    HW3 9992   1.370   4.085   4.310  0.1101 -0.1699 -0.3524
 2497SOL    MW4 9993   1.344   4.006   4.337  0.1123 -0.0562 -0.0162
 2498SOL     OW 9994   1.371   4.247   4.194 -0.1520  0.4304  0.5258
 2498SOL    HW2 9995   1.432   4.321   4.200 -0.4585  0.7041  0.2766
 2498SOL    HW3 9996   1.357   4.234   4.100 -1.3231  1.0713  0.6065
 2498SOL    MW4 9997   1.378   4.255   4.183 -0.3469  0.5510  0.5036
 2499SOL     OW 9998   1.568   4.431   4.283  0.1701 -0.7117  0.0460
 2499SOL    HW2 9999   1.559   4.510   4.229  0.9957  0.1447  1.1284
 2499SOL    HW310000   1.640   4.382   4.242  0.2984 -0.4286 -0.0724
 2499SOL    MW410001   1.576   4.435   4.270  0.2960 -0.5613  0.1732
 2500SOL     OW10002   1.999   4.644   4.135  0.2624  0.4029 -0.1044
 2500SOL    HW210003   1.922   4.668   4.187 -0.4513 -0.5822 -0.6801
 2500SOL    HW310004   1.971   4.657   4.044  1.2289  1.3207 -0.2870
 2500SOL    MW410005   1.985   4.649   4.130  0.2958  0.3940 -0.2045
 2501SOL     OW10006   1.768   0.085   4.253  0.2964 -0.0750  0.7840
 2501SOL    HW210007   1.726   0.085   4.339 -1.6924  0.0943 -0.1508
 2501SOL    HW310008   1.761   0.175   4.222 -1.5622 -0.6920 -0.7246
 2501SOL    MW410009   1.762   0.097   4.260 -0.2112 -0.1341  0.4616
 2502SOL     OW10010   1.771   0.344   4.172  0.4118  0.4518  0.6547
 2502SOL    HW210011   1.833   0.407   4.209  0.9557 -0.0556  0.6209
 2502SOL    HW310012   1.685   0.375   4.200  0.8171 -0.0534  2.5467
 2502SOL    MW410013   1.768   0.357   4.181  0.5370  0.3182  0.8998
 2503SOL     OW10014   1.973   0.506   4.306 -0.1541 -0.1497  0.0379
 2503SOL    HW210015   1.997   0.506   4.399 -0.5657  0.7657  0.1555
 2503SOL    HW310016   2.040   0.452   4.264 -0.6283 -1.5493  1.0290
 2503SOL    MW410017   1.985   0.499   4.313 -0.2710 -0.2136  0.1841
 2504SOL     OW10018   1.999   0.770   4.172  0.0755 -0.1341 -0.1015
 2504SOL    HW210019   2.073   0.823   4.204  0.0809 -0.7752  0.9771
 2504SOL    HW310020   2.002   0.690   4.225 -1.2316 -0.2778 -0.2225
 2504SOL    MW410021   2.009   0.767   4.184 -0.0962 -0.2376  0.0249
 2505SOL     OW10022   1.758   0.889   4.217 -0.3660  0.2718  0.0137
 2505SOL    HW210023   1.770   0.982   4.201 -0.1130  0.1879 -0.2745
 2505SOL    HW310024   1.844   0.851   4.204 -0.0096  0.2874  2.1563
 2505SOL    MW410025   1.771   0.896   4.213 -0.2856  0.2628  0.2583
 2506SOL     OW10026   1.788   1.155   4.189  0.1160  0.0800  0.2603
 2506SOL    HW210027   1.863   1.204   4.223  0.4796 -0.7025  0.6075
 2506SOL    HW310028   1.714   1.186   4.241  0.1737  0.9733 -0.1924
 2506SOL    MW410029   1.788   1.165   4.201  0.1715  0.0947  0.2464
 2507SOL     OW10030   2.016   1.316   4.262  0.1431 -0.5845  0.1007
 2507SOL    HW210031   2.095   1.281   4.221 -0.4396 -0.7750 -0.8802
 2507SOL    HW310032   2.008   1.405   4.228  0.1183 -0.4535  0.4494
 2507SOL    MW410033   2.025   1.323   4.252  0.0630 -0.5924  0.0173
 2508SOL     OW10034   2.012   1.583   4.140  0.4533  0.4239  0.0586
 2508SOL    HW210035   2.100   1.611   4.163  0.5734 -0.5314  0.7970
 2508SOL    HW310036   2.014   1.569   4.046  0.9062  1.0438 -0.0238
 2508SOL    MW410037   2.024   1.585   4.131  0.5289  0.3796  0.1451
 2509SOL     OW10038   1.776   1.694   4.250 -0.0829  0.4321  0.4018
 2509SOL    HW210039   1.843   1.644   4.203 -1.5732 -2.0024  0.7640
 2509SOL    HW310040   1.693   1.656   4.221 -1.2208  1.9336  1.5983
 2509SOL    MW410041   1.774   1.682   4.240 -0.4297  0.3090  0.6075
 2510SOL     OW10042   1.751   1.957   4.144 -0.2017  0.7296  0.3821
 2510SOL    HW210043   1.774   1.872   4.182  1.8696  0.7517 -0.7894
 2510SOL    HW310044   1.669   1.980   4.187 -1.4245 -2.3949 -0.1336
 2510SOL    MW410045   1.743   1.949   4.155 -0.0897  0.3203  0.1595
 2511SOL     OW10046   1.976   2.062   4.257  0.1203  0.1579 -0.5006
 2511SOL    HW210047   2.034   1.995   4.221 -0.0662 -0.5227  0.4240
 2511SOL    HW310048   1.889   2.038   4.225 -0.5390 -2.2329  2.7336
 2511SOL    MW410049   1.972   2.050   4.248  0.0087 -0.2473  0.0481
 2512SOL     OW10050   2.054   2.326   4.189  0.3003 -0.2938  0.0907
 2512SOL    HW210051   2.024   2.236   4.206 -1.5714  0.3003 -0.0301
 2512SOL    HW310052   2.032   2.341   4.097  1.0627  0.1145 -0.0232
 2512SOL    MW410053   2.047   2.316   4.179  0.1539 -0.1616  0.0598
 2513SOL     OW10054   1.814   2.420   4.262  0.1068  0.3810 -0.2422
 2513SOL    HW210055   1.826   2.430   4.357  0.3855  0.6189 -0.3016
 2513SOL    HW310056   1.900   2.395   4.229 -0.1604 -0.4238 -0.3407
 2513SOL    MW410057   1.827   2.418   4.270  0.1083  0.3062 -0.2631
 2514SOL     OW10058   1.788   2.691   4.167 -0.0676 -0.1031 -0.1519
 2514SOL    HW210059   1.792   2.602   4.202  0.1628 -0.1464 -0.2899
 2514SOL    HW310060   1.704   2.725   4.198 -0.6355 -0.7355 -0.9772
 2514SOL    MW410061   1.778   2.684   4.175 -0.1121 -0.1922 -0.2790
 2515SOL     OW10062   2.014   2.730   4.356 -0.0988 -0.1486  0.1250
 2515SOL    HW210063   2.033   2.823   4.355 -0.1540 -0.1508 -1.8216
 2515SOL    HW310064   1.935   2.720   4.304 -1.1761 -1.0803  1.8570
 2515SOL    MW410065   2.006   2.741   4.349 -0.2482 -0.2718  0.0967
 2516SOL     OW10066   2.182   3.152   4.098  0.1048 -0.1729  0.2320
 2516SOL    HW210067   2.158   3.242   4.117  1.9379  0.7756 -1.7591
 2516SOL    HW310068   2.125   3.127   4.025  0.5606 -0.1659 -0.1248
 2516SOL    MW410069   2.171   3.160   4.091  0.4068 -0.0468 -0.0778
 2517SOL     OW10070   1.725   3.249   4.352 -0.0317  0.0506  0.2803
 2517SOL    HW210071   1.807   3.206   4.377  0.3041 -0.0099 -0.9098
 2517SOL    HW310072   1.751   3.314   4.287 -1.0865 -0.7923 -0.9939
 2517SOL    MW410073   1.739   3.252   4.347 -0.1266 -0.0686 -0.0449
 2518SOL     OW10074   1.776   3.449   4.164 -0.6144 -0.7074  0.2329
 2518SOL    HW210075   1.706   3.504   4.200 -0.5974 -0.7057  0.2636
 2518SOL    HW310076   1.758   3.445   4.070 -0.9240 -1.0865  0.3042
 2518SOL    MW410077   1.765   3.456   4.157 -0.6530 -0.7572  0.2463
 2519SOL     OW10078   1.982   3.618   4.256 -0.6776  0.2481  0.2727
 2519SOL    HW210079   1.965   3.701   4.211  0.0269  0.4681  0.4163
 2519SOL    HW310080   1.910   3.561   4.228 -1.1780  0.9105  0.1943
 2519SOL    MW410081   1.970   3.621   4.246 -0.6507  0.3645  0.2813
 2520SOL     OW10082   1.986   3.879   4.155 -0.0811 -0.2208 -0.0355
 2520SOL    HW210083   1.924   3.947   4.178 -0.6499 -0.3233 -1.2760
 2520SOL    HW310084   1.991   3.881   4.060  1.9527 -0.0866  0.0425
 2520SOL    MW410085   1.979   3.888   4.146  0.1122 -0.2166 -0.1889
 2521SOL     OW10086   1.793   4.058   4.235  0.1920 -0.2403 -0.1842
 2521SOL    HW210087   1.796   4.151   4.215 -1.4467  0.2795  1.9400
 2521SOL    HW310088   1.717   4.025   4.186 -1.1488  0.1765  1.5817
 2521SOL    MW410089   1.784   4.066   4.226 -0.2011 -0.1167  0.3291
 2522SOL     OW10090   1.771   4.328   4.145 -0.5465  0.5308  0.5040
 2522SOL    HW210091   1.854   4.346   4.188 -1.2509  0.1566  2.0304
 2522SOL    HW310092   1.795   4.305   4.055  0.9989  0.3626  0.9535
 2522SOL    MW410093   1.785   4.328   4.139 -0.4356  0.4592  0.7647
 2523SOL     OW10094   2.028   4.376   4.255 -0.6290  0.1258 -0.0250
 2523SOL    HW210095   1.994   4.381   4.344 -1.2900 -0.6766 -0.2208
 2523SOL    HW310096   2.046   4.466   4.230  0.3666  0.2864  1.2281
 2523SOL    MW410097   2.026   4.388   4.263 -0.5849  0.0411  0.1145
 2524SOL     OW10098   2.441   4.651   4.126  0.0544  0.2676  0.0929
 2524SOL    HW210099   2.518   4.700   4.155  0.0150  0.6670 -0.4777
 2524SOL    HW310100   2.455   4.563   4.161  0.9560  0.2415 -0.3188
 2524SOL    MW410101   2.453   4.646   4.135  0.1681  0.3169 -0.0367
 2525SOL     OW10102   2.226   0.118   4.237 -0.2574  0.6897 -0.3652
 2525SOL    HW210103   2.304   0.066   4.218  0.1531 -0.0226  3.0263
 2525SOL    HW310104   2.154   0.067   4.200  0.7303  0.8159 -2.5544
 2525SOL    MW410105   2.227   0.105   4.229 -0.0729  0.6124 -0.2066
 2526SOL     OW10106   2.194   0.375   4.176  0.6601 -0.1791 -0.2471
 2526SOL    HW210107   2.207   0.282   4.193  0.5114 -0.1977 -0.2394
 2526SOL    HW310108   2.206   0.385   4.081  0.3005 -0.2652 -0.3009
 2526SOL    MW410109   2.197   0.364   4.166  0.5930 -0.1929 -0.2532
 2527SOL     OW10110   2.415   0.516   4.278  0.3010 -0.1359  0.5235
 2527SOL    HW210111   2.396   0.561   4.360 -1.8924  1.3023 -0.7335
 2527SOL    HW310112   2.333   0.474   4.254  1.2402 -1.4789 -0.3818
 2527SOL    MW410113   2.402   0.517   4.286  0.1355 -0.1233  0.2382
 2528SOL     OW10114   2.455   0.763   4.166 -0.0959 -0.2413 -0.2698
 2528SOL    HW210115   2.431   0.678   4.203  2.1449 -1.5120 -1.6332
 2528SOL    HW310116   2.443   0.752   4.071 -0.8963  1.3439 -0.3635
 2528SOL    MW410117   2.450   0.750   4.158  0.0941 -0.1998 -0.4621
 2529SOL     OW10118   2.225   0.902   4.263  0.5907  0.0039  0.1828
 2529SOL    HW210119   2.224   0.893   4.358  2.3190  2.8337  0.5290
 2529SOL    HW310120   2.311   0.867   4.237  0.0246 -0.9926 -0.4036
 2529SOL    MW410121   2.236   0.896   4.272  0.7440  0.2458  0.1511
 2530SOL     OW10122   2.227   1.171   4.172  0.4682  0.3166 -0.0922
 2530SOL    HW210123   2.303   1.211   4.213  0.1441  0.1520  0.6810
 2530SOL    HW310124   2.222   1.084   4.211 -0.7944  0.7430  0.7497
 2530SOL    MW410125   2.236   1.165   4.182  0.2588  0.3512  0.1209
 2531SOL     OW10126   2.502   1.277   4.224  0.5048 -0.6895  0.2678
 2531SOL    HW210127   2.508   1.291   4.319 -0.4810 -0.5670  0.3140
 2531SOL    HW310128   2.589   1.244   4.199  0.9662 -0.1261  1.1106
 2531SOL    MW410129   2.515   1.275   4.233  0.4356 -0.5990  0.3851
 2532SOL     OW10130   2.508   1.526   4.135 -0.6320 -0.1331  0.6148
 2532SOL    HW210131   2.507   1.436   4.170 -1.0618 -0.4896 -0.2825
 2532SOL    HW310132   2.485   1.515   4.043  0.9511  0.7470  0.1069
 2532SOL    MW410133   2.505   1.512   4.128 -0.4799 -0.0640  0.4294
 2533SOL     OW10134   2.258   1.670   4.272  0.0478 -0.2270 -0.0448
 2533SOL    HW210135   2.286   1.686   4.363  1.1746  1.7075 -0.7070
 2533SOL    HW310136   2.332   1.626   4.231  0.5751  1.3021 -0.7395
 2533SOL    MW410137   2.271   1.666   4.279  0.2661  0.2300 -0.2238
 2534SOL     OW10138   2.206   1.901   4.143 -0.3994 -0.1983  0.0510
 2534SOL    HW210139   2.291   1.944   4.149  0.1684 -1.3855  0.7790
 2534SOL    HW310140   2.215   1.823   4.198 -1.2122 -1.5473 -1.6635
 2534SOL    MW410141   2.219   1.896   4.151 -0.4317 -0.5329 -0.0792
 2535SOL     OW10142   2.451   2.025   4.203 -0.1780 -0.0289  0.3297
 2535SOL    HW210143   2.477   2.029   4.295 -1.2361 -0.6286  0.6640
 2535SOL    HW310144   2.531   1.999   4.157  0.4336  0.5602  1.0395
 2535SOL    MW410145   2.465   2.022   4.209 -0.2369 -0.0303  0.4675
 2536SOL     OW10146   2.454   2.295   4.129 -0.0461  0.7086 -0.2716
 2536SOL    HW210147   2.448   2.203   4.155 -1.5658  0.6342 -0.8550
 2536SOL    HW310148   2.437   2.294   4.034  1.2411  1.4477 -0.5225
 2536SOL    MW410149   2.451   2.283   4.120 -0.0768  0.7963 -0.3817
 2537SOL     OW10150   2.286   2.425   4.305 -0.1770  0.0221 -0.0546
 2537SOL    HW210151   2.350   2.387   4.245 -1.0918 -0.1427 -0.9415
 2537SOL    HW310152   2.201   2.404   4.266 -0.7814 -0.0348  1.2743
 2537SOL    MW410153   2.283   2.417   4.292 -0.3774 -0.0072  0.0037
 2538SOL     OW10154   2.236   2.673   4.207  0.0702  0.0260 -0.0776
 2538SOL    HW210155   2.244   2.587   4.248  2.0455 -0.2497 -0.9773
 2538SOL    HW310156   2.168   2.718   4.258 -0.3817 -1.7522  0.9217
 2538SOL    MW410157   2.228   2.668   4.219  0.2712 -0.2450 -0.0645
 2539SOL     OW10158   2.453   2.840   4.247  0.0360  0.4119  0.1748
 2539SOL    HW210159   2.483   2.813   4.334 -0.9715 -2.3871 -0.2822
 2539SOL    HW310160   2.368   2.797   4.237 -0.9090  2.5240 -1.3311
 2539SOL    MW410161   2.445   2.831   4.257 -0.2216  0.3213 -0.0842
 2540SOL     OW10162   2.470   3.126   4.170 -0.1943  0.3464  0.4834
 2540SOL    HW210163   2.383   3.164   4.166  0.1182  0.8886 -2.0922
 2540SOL    HW310164   2.455   3.033   4.189 -1.5327 -0.1962 -2.9614
 2540SOL    MW410165   2.457   3.118   4.172 -0.3297  0.3464 -0.3109
 2541SOL     OW10166   2.171   2.969   4.348  0.1602 -0.4444  0.1991
 2541SOL    HW210167   2.095   3.018   4.377  0.4686  0.2653 -0.1790
 2541SOL    HW310168   2.189   3.002   4.259 -0.6189 -2.3890 -0.6999
 2541SOL    MW410169   2.164   2.980   4.340  0.0981 -0.6073  0.0306
 2542SOL     OW10170   2.165   3.394   4.217 -0.2099 -0.0640 -0.2336
 2542SOL    HW210171   2.217   3.377   4.296 -1.1357 -0.8878  0.2031
 2542SOL    HW310172   2.118   3.475   4.238 -1.1906 -0.7911  0.4593
 2542SOL    MW410173   2.165   3.403   4.230 -0.4615 -0.2686 -0.0846
 2543SOL     OW10174   2.499   3.603   4.326  0.1078 -0.0539 -0.2570
 2543SOL    HW210175   2.534   3.629   4.411  1.1318 -1.7535 -0.1372
 2543SOL    HW310176   2.472   3.685   4.285  0.6815  0.8930  1.2323
 2543SOL    MW410177   2.500   3.617   4.332  0.3186 -0.1532 -0.0447
 2544SOL     OW10178   2.472   3.849   4.174  0.2886 -0.3516 -0.4580
 2544SOL    HW210179   2.549   3.900   4.199 -0.0040  0.3022 -0.8455
 2544SOL    HW310180   2.485   3.829   4.081 -0.2826  0.2789 -0.6802
 2544SOL    MW410181   2.484   3.853   4.165  0.1747 -0.1822 -0.5385
 2545SOL     OW10182   2.244   3.979   4.264  0.0093 -0.4366  0.0450
 2545SOL    HW210183   2.314   3.929   4.223  0.0866  0.8452 -1.3943
 2545SOL    HW310184   2.164   3.948   4.222  0.0074  0.2574 -0.4724
 2545SOL    MW410185   2.242   3.969   4.253  0.0192 -0.1759 -0.2132
 2546SOL     OW10186   2.237   4.236   4.140  0.4115 -0.0828  0.0916
 2546SOL    HW210187   2.248   4.157   4.194 -1.4743 -0.9237 -0.7072
 2546SOL    HW310188   2.162   4.281   4.179 -0.9478 -0.6765 -1.7645
 2546SOL    MW410189   2.228   4.232   4.153 -0.0167 -0.2721 -0.2587
 2547SOL     OW10190   2.433   4.394   4.213  0.2364 -0.1084 -0.0627
 2547SOL    HW210191   2.514   4.343   4.206  0.4979  0.3868 -0.7075
 2547SOL    HW310192   2.364   4.333   4.189  0.3711 -0.6677  0.9589
 2547SOL    MW410193   2.435   4.380   4.209  0.2887 -0.1168 -0.0130
 2548SOL     OW10194   2.893   4.637   4.173 -0.3288 -0.1881 -0.4942
 2548SOL    HW210195   2.969   4.674   4.218 -0.7027 -0.0236  0.0098
 2548SOL    HW310196   2.896   4.544   4.194 -0.2442 -0.1877 -0.5023
 2548SOL    MW410197   2.903   4.630   4.182 -0.3670 -0.1664 -0.4287
 2549SOL     OW10198   2.639   0.151   4.270  0.1146 -0.2104  0.2549
 2549SOL    HW210199   2.660   0.242   4.248 -1.8986  0.0941 -0.5260
 2549SOL    HW310200   2.720   0.103   4.254  0.5081  1.0535 -1.7621
 2549SOL    MW410201   2.653   0.157   4.265 -0.0991 -0.0035 -0.1142
 2550SOL     OW10202   2.659   0.418   4.181  0.1781 -0.1245 -0.0358
 2550SOL    HW210203   2.568   0.442   4.199 -0.0811 -2.0018  1.3604
 2550SOL    HW310204   2.663   0.410   4.086 -1.3224 -0.7333 -0.0586
 2550SOL    MW410205   2.647   0.420   4.171 -0.0541 -0.4525  0.1454
 2551SOL     OW10206   2.918   0.515   4.211 -0.6158  0.6192  0.3080
 2551SOL    HW210207   2.913   0.609   4.195 -1.1588  0.6121  0.4139
 2551SOL    HW310208   2.827   0.486   4.212 -0.4993  0.2695  1.3089
 2551SOL    MW410209   2.905   0.524   4.209 -0.6721  0.5721  0.4540
 2552SOL     OW10210   2.904   0.784   4.173 -0.0980  0.1609 -0.3009
 2552SOL    HW210211   2.970   0.834   4.221 -0.8753  0.9609 -0.0606
 2552SOL    HW310212   2.935   0.786   4.082  1.2493 -1.1653  0.0927
 2552SOL    MW410213   2.917   0.791   4.167 -0.0228  0.0915 -0.2173
 2553SOL     OW10214   2.679   0.913   4.264  0.0443 -0.1415  0.1301
 2553SOL    HW210215   2.755   0.873   4.222  0.3941  0.1946  0.4364
 2553SOL    HW310216   2.605   0.858   4.238  0.3082 -0.1189 -0.6528
 2553SOL    MW410217   2.679   0.900   4.255  0.1253 -0.0942  0.0673
 2554SOL     OW10218   2.743   1.123   4.119 -0.2347 -0.1195  0.1290
 2554SOL    HW210219   2.723   1.039   4.161  1.2085  0.4911  2.1111
 2554SOL    HW310220   2.720   1.110   4.027 -2.9065 -1.6858  0.9763
 2554SOL    MW410221   2.738   1.110   4.113 -0.3968 -0.2456  0.5023
 2555SOL     OW10222   2.940   1.270   4.286 -0.4651 -0.2305 -0.2264
 2555SOL    HW210223   3.025   1.236   4.260 -1.2382 -1.0996 -1.6987
 2555SOL    HW310224   2.876   1.214   4.241 -1.8059  0.7780  0.3573
 2555SOL    MW410225   2.942   1.258   4.276 -0.7440 -0.2121 -0.3436
 2556SOL     OW10226   2.920   1.530   4.150 -0.1257  0.0604 -0.0915
 2556SOL    HW210227   3.003   1.575   4.167  0.0447 -0.4929  0.5830
 2556SOL    HW310228   2.935   1.440   4.180 -0.3266 -0.5694 -1.8327
 2556SOL    MW410229   2.933   1.524   4.156 -0.1297 -0.0957 -0.2323
 2557SOL     OW10230   2.689   1.689   4.251 -0.0573  0.0009 -0.1280
 2557SOL    HW210231   2.771   1.642   4.237 -0.6319 -1.3622  0.9650
 2557SOL    HW310232   2.621   1.632   4.214 -0.9103 -0.7462  2.4926
 2557SOL    MW410233   2.691   1.676   4.244 -0.2457 -0.2775  0.3620
 2558SOL     OW10234   2.739   1.931   4.139  0.3175  0.2141  0.7062
 2558SOL    HW210235   2.712   1.841   4.155  0.4443  0.0572  0.0679
 2558SOL    HW310236   2.724   1.944   4.045 -0.6011  1.1606  0.9678
 2558SOL    MW410237   2.733   1.921   4.128  0.2130  0.3183  0.6565
 2559SOL     OW10238   2.936   2.053   4.288 -0.0808 -0.1522  0.1222
 2559SOL    HW210239   2.941   2.141   4.248  0.8803  0.2368  1.0866
 2559SOL    HW310240   2.867   2.009   4.238 -0.1531  0.9425 -0.7849
 2559SOL    MW410241   2.928   2.059   4.276  0.0364  0.0435  0.1298
 2560SOL     OW10242   2.935   2.295   4.168 -0.0291 -0.4161 -0.3322
 2560SOL    HW210243   3.002   2.350   4.210 -0.8017  0.2419  0.0672
 2560SOL    HW310244   2.852   2.338   4.190 -0.6521 -1.7200 -0.0593
 2560SOL    MW410245   2.933   2.308   4.176 -0.2132 -0.5013 -0.2435
 2561SOL     OW10246   2.693   2.425   4.220  0.1897  0.2632 -0.1158
 2561SOL    HW210247   2.673   2.401   4.310 -0.5368  1.7528  0.1343
 2561SOL    HW310248   2.617   2.396   4.170  0.4178 -0.2044 -0.1961
 2561SOL    MW410249   2.680   2.418   4.225  0.1239  0.3981 -0.0934
 2562SOL     OW10250   2.679   2.686   4.150  0.1927 -0.3005  0.3369
 2562SOL    HW210251   2.686   2.595   4.176  1.3374 -0.5425 -0.7634
 2562SOL    HW310252   2.591   2.712   4.176  0.4111 -1.2529  2.0680
 2562SOL    MW410253   2.668   2.677   4.157  0.3725 -0.4581  0.4201
 2563SOL     OW10254   2.840   2.882   4.254 -0.3544  0.4101  0.2317
 2563SOL    HW210255   2.820   2.889   4.347  0.7112  0.6246  0.4457
 2563SOL    HW310256   2.776   2.820   4.220  0.2051 -0.8177  1.3951
 2563SOL    MW410257   2.829   2.875   4.261 -0.1400  0.2764  0.4134
 2564SOL     OW10258   2.918   3.123   4.153  0.1230 -0.0222 -0.1007
 2564SOL    HW210259   2.895   3.034   4.176 -0.7941 -0.2418 -1.7567
 2564SOL    HW310260   2.908   3.126   4.057  0.3905  1.7701 -0.0905
 2564SOL    MW410261   2.914   3.112   4.143  0.0373  0.1853 -0.3178
 2565SOL     OW10262   2.701   3.221   4.296 -0.3034 -0.4700 -0.3464
 2565SOL    HW210263   2.776   3.189   4.245  0.7029 -0.4439  1.0904
 2565SOL    HW310264   2.627   3.169   4.265  0.6922 -1.8926 -0.3699
 2565SOL    MW410265   2.701   3.210   4.285 -0.0393 -0.6542 -0.1599
 2566SOL     OW10266   2.674   3.469   4.166  0.8634 -0.3881  0.1487
 2566SOL    HW210267   2.662   3.380   4.200 -1.1544  0.1396  0.9146
 2566SOL    HW310268   2.611   3.522   4.215  2.0061  1.4682 -0.3324
 2566SOL    MW410269   2.664   3.464   4.177  0.7480 -0.0736  0.1863
 2567SOL     OW10270   2.877   3.615   4.266  0.0659 -0.1266 -0.3324
 2567SOL    HW210271   2.874   3.609   4.362 -1.4302 -0.9305 -0.4063
 2567SOL    HW310272   2.802   3.563   4.237  1.0218 -0.6024 -1.9783
 2567SOL    MW410273   2.867   3.607   4.275 -0.0054 -0.2955 -0.5593
 2568SOL     OW10274   2.916   3.868   4.166  0.7930 -0.0352 -0.4095
 2568SOL    HW210275   3.005   3.900   4.182  0.8363 -0.3948  0.0858
 2568SOL    HW310276   2.914   3.781   4.204 -0.8070  1.3159  2.8046
 2568SOL    MW410277   2.927   3.861   4.173  0.5876  0.0956  0.0799
 2569SOL     OW10278   2.682   3.997   4.277 -0.1719 -0.0555 -0.2579
 2569SOL    HW210279   2.672   4.080   4.231  0.8947  0.3076  0.1614
 2569SOL    HW310280   2.765   3.961   4.246 -0.7083 -1.0459 -0.5658
 2569SOL    MW410281   2.692   4.003   4.267 -0.1020 -0.1383 -0.2432
 2570SOL     OW10282   2.670   4.250   4.183 -0.4246  0.4979 -0.4349
 2570SOL    HW210283   2.754   4.289   4.209 -0.5601  0.6750 -0.2579
 2570SOL    HW310284   2.674   4.244   4.088 -0.0669  0.1778 -0.4011
 2570SOL    MW410285   2.682   4.254   4.174 -0.3953  0.4791 -0.4071
 2571SOL     OW10286   2.916   4.368   4.243  0.1502  0.4272  0.0316
 2571SOL    HW210287   2.942   4.383   4.334 -0.2037 -0.4145  0.2715
 2571SOL    HW310288   2.995   4.336   4.200  0.3497  0.9408  0.0098
 2571SOL    MW410289   2.930   4.366   4.249  0.1298  0.3839  0.0604
 2572SOL     OW10290   3.355   4.646   4.182 -0.2761  0.4048 -0.1201
 2572SOL    HW210291   3.439   4.691   4.186 -0.6635  1.0638  0.8915
 2572SOL    HW310292   3.375   4.555   4.205  0.4302  0.1552 -1.6646
 2572SOL    MW410293   3.368   4.640   4.186 -0.2340  0.4588 -0.1904
 2573SOL     OW10294   3.498   0.198   4.527  0.3095 -0.9668 -0.1419
 2573SOL    HW210295   3.433   0.268   4.532  3.1728  1.8012 -0.2651
 2573SOL    HW310296   3.518   0.190   4.434  1.3055 -0.6378  0.0316
 2573SOL    MW410297   3.492   0.206   4.515  0.8187 -0.5582 -0.1353
 2574SOL     OW10298   3.154   0.355   4.196 -0.1069 -0.3025 -0.3052
 2574SOL    HW210299   3.140   0.265   4.225 -0.1210 -0.3576 -0.4841
 2574SOL    HW310300   3.069   0.397   4.208  0.0195 -0.1955  0.2032
 2574SOL    MW410301   3.141   0.349   4.201 -0.0920 -0.2957 -0.2617
 2575SOL     OW10302   3.394   0.505   4.291  0.2148  0.4222  0.2227
 2575SOL    HW210303   3.476   0.487   4.245 -0.1051 -0.3789 -0.0420
 2575SOL    HW310304   3.331   0.446   4.251 -0.1643  0.0170  1.3980
 2575SOL    MW410305   3.397   0.495   4.280  0.1226  0.2630  0.3429
 2576SOL     OW10306   3.398   0.776   4.229  0.5239  0.1194  0.0307
 2576SOL    HW210307   3.314   0.818   4.249  0.9282  0.7607  0.3867
 2576SOL    HW310308   3.389   0.687   4.264 -0.4012 -0.1543 -0.8926
 2576SOL    MW410309   3.386   0.769   4.237  0.4552  0.1679 -0.0441
 2577SOL     OW10310   3.136   0.876   4.298 -0.2428  0.4813  1.1471
 2577SOL    HW210311   3.156   0.863   4.390  0.4043  0.4491  1.0036
 2577SOL    HW310312   3.146   0.971   4.284  1.1009  0.2971  0.7793
 2577SOL    MW410313   3.140   0.887   4.308  0.0199  0.4527  1.0797
 2578SOL     OW10314   3.172   1.147   4.198  0.0649  0.1772  0.1578
 2578SOL    HW210315   3.255   1.189   4.220 -1.0359  2.5259  0.0533
 2578SOL    HW310316   3.166   1.154   4.103  0.2012 -0.8693  0.0723
 2578SOL    MW410317   3.182   1.154   4.188 -0.0624  0.3490  0.1328
 2579SOL     OW10318   3.413   1.317   4.273  0.1166  0.2262 -0.1430
 2579SOL    HW210319   3.411   1.307   4.368  0.0489  1.1484 -0.0421
 2579SOL    HW310320   3.431   1.410   4.259  0.1652  0.0886 -1.0324
 2579SOL    MW410321   3.415   1.328   4.284  0.1141  0.3297 -0.2470
 2580SOL     OW10322   3.394   1.578   4.191  0.1372  0.9370 -0.3630
 2580SOL    HW210323   3.313   1.624   4.215 -0.5114 -0.2459 -0.2227
 2580SOL    HW310324   3.381   1.555   4.099 -0.2235 -0.3217 -0.0088
 2580SOL    MW410325   3.381   1.581   4.182  0.0040  0.6148 -0.2978
 2581SOL     OW10326   3.143   1.685   4.261 -0.1285 -0.0611  0.0999
 2581SOL    HW210327   3.164   1.695   4.354 -1.0862 -0.0292  0.3197
 2581SOL    HW310328   3.167   1.769   4.222  0.4806 -0.1522  0.2838
 2581SOL    MW410329   3.149   1.697   4.268 -0.1745 -0.0689  0.1532
 2582SOL     OW10330   3.163   1.954   4.168 -0.0603 -0.0115 -0.1966
 2582SOL    HW210331   3.225   2.019   4.202  0.1130 -0.3225  0.0859
 2582SOL    HW310332   3.078   1.982   4.201 -0.1607  0.7988 -1.1472
 2582SOL    MW410333   3.160   1.966   4.177 -0.0507  0.0544 -0.2848
 2583SOL     OW10334   3.390   2.098   4.266  0.4706  0.2613 -0.1825
 2583SOL    HW210335   3.439   2.033   4.215  0.1005 -0.3572  0.2433
 2583SOL    HW310336   3.384   2.174   4.208 -0.0152 -0.4675 -1.1076
 2583SOL    MW410337   3.396   2.099   4.251  0.3577  0.0835 -0.2484
 2584SOL     OW10338   3.320   2.363   4.170 -0.5496 -0.0371 -0.5004
 2584SOL    HW210339   3.390   2.405   4.220  0.1163 -0.5458 -1.0005
 2584SOL    HW310340   3.344   2.377   4.078  0.1604 -2.3036 -0.6895
 2584SOL    MW410341   3.332   2.371   4.164 -0.3681 -0.4032 -0.5913
 2585SOL     OW10342   3.088   2.475   4.308  0.0452  0.0039 -0.2576
 2585SOL    HW210343   3.084   2.560   4.266 -0.6250 -0.0216 -0.2537
 2585SOL    HW310344   3.177   2.444   4.292  0.4855  0.9752  0.2838
 2585SOL    MW410345   3.099   2.482   4.301  0.0149  0.1287 -0.1857
 2586SOL     OW10346   3.095   2.754   4.181 -0.1147 -0.0045 -0.2923
 2586SOL    HW210347   3.159   2.791   4.243 -0.0175 -1.9341  0.7762
 2586SOL    HW310348   3.011   2.789   4.210  0.1401  0.4893 -0.1364
 2586SOL    MW410349   3.092   2.764   4.193 -0.0682 -0.1939 -0.1307
 2587SOL     OW10350   3.313   2.865   4.320 -0.0672 -0.1054 -0.5112
 2587SOL    HW210351   3.379   2.796   4.323 -0.3835 -0.3819  0.0335
 2587SOL    HW310352   3.345   2.926   4.253  0.2203 -0.7667 -0.9780
 2587SOL    MW410353   3.326   2.864   4.311 -0.0710 -0.2291 -0.5009
 2588SOL     OW10354   3.379   3.087   4.148  0.0810 -0.3337 -0.1988
 2588SOL    HW210355   3.304   3.144   4.168  0.0745 -0.1240 -0.8167
 2588SOL    HW310356   3.380   3.081   4.053 -1.0406 -2.9044 -0.0770
 2588SOL    MW410357   3.369   3.094   4.138 -0.0679 -0.6452 -0.2643
 2589SOL     OW10358   3.161   3.237   4.243  0.0225  0.0486  0.4397
 2589SOL    HW210359   3.152   3.327   4.212  0.7587  0.3064  0.9585
 2589SOL    HW310360   3.079   3.195   4.218  0.0977  0.5839 -0.7331
 2589SOL    MW410361   3.149   3.244   4.236  0.1296  0.1532  0.3534
 2590SOL     OW10362   3.120   3.495   4.140 -0.1828  0.1834 -0.1260
 2590SOL    HW210363   3.038   3.519   4.184 -0.7427 -1.7605 -0.0596
 2590SOL    HW310364   3.105   3.517   4.048 -0.5393  0.4498 -0.0070
 2590SOL    MW410365   3.107   3.501   4.134 -0.3037 -0.0379 -0.1015
 2591SOL     OW10366   3.339   3.572   4.288  0.0902  0.1572  0.5426
 2591SOL    HW210367   3.340   3.524   4.371 -0.5898 -2.0956 -0.6963
 2591SOL    HW310368   3.259   3.541   4.244  0.3707  1.4107 -0.8906
 2591SOL    MW410369   3.328   3.562   4.293  0.0375  0.0254  0.1900
 2592SOL     OW10370   3.417   3.824   4.165 -0.5067 -0.1153  0.4453
 2592SOL    HW210371   3.387   3.740   4.200 -0.2395 -1.0087 -1.4326
 2592SOL    HW310372   3.390   3.824   4.073  1.5704  0.8364 -0.2031
 2592SOL    MW410373   3.410   3.813   4.157 -0.1974 -0.1076  0.1120
 2593SOL     OW10374   3.178   3.960   4.233 -0.1078 -0.5134  0.3182
 2593SOL    HW210375   3.172   3.956   4.329 -0.0839  0.0618  0.3444
 2593SOL    HW310376   3.253   3.905   4.212 -0.5646 -1.2510  0.5736
 2593SOL    MW410377   3.187   3.952   4.243 -0.1649 -0.5349  0.3553
 2594SOL     OW10378   3.141   4.226   4.123  0.0223 -0.0642  0.1379
 2594SOL    HW210379   3.217   4.267   4.165 -1.3913  2.1078  0.6400
 2594SOL    HW310380   3.144   4.135   4.152  1.8952  0.2220  0.9096
 2594SOL    MW410381   3.152   4.220   4.132  0.0829  0.2601  0.3060
 2595SOL     OW10382   3.356   4.373   4.245 -0.3429 -0.2119  0.1437
 2595SOL    HW210383   3.335   4.359   4.337 -1.0447 -0.8744 -0.1124
 2595SOL    HW310384   3.438   4.325   4.232 -0.5800 -0.6618  0.2740
 2595SOL    MW410385   3.364   4.365   4.255 -0.4668 -0.3587  0.1271
 2596SOL     OW10386   3.790   4.639   4.154 -0.3568  0.5255 -0.2453
 2596SOL    HW210387   3.858   4.701   4.177  1.0457 -0.6967 -0.9609
 2596SOL    HW310388   3.804   4.622   4.060 -1.0383 -0.4631 -0.1771
 2596SOL    MW410389   3.801   4.645   4.144 -0.2617  0.2338 -0.3307
 2597SOL     OW10390   3.578   0.129   4.261 -0.2506  0.2392 -0.2246
 2597SOL    HW210391   3.615   0.214   4.236 -0.4423  0.4506  0.2024
 2597SOL    HW310392   3.647   0.066   4.244 -0.3276  0.3998 -1.1654
 2597SOL    MW410393   3.592   0.132   4.255 -0.2861  0.2883 -0.2924
 2598SOL     OW10394   3.618   0.413   4.173 -0.0498  0.7849 -0.0299
 2598SOL    HW210395   3.690   0.475   4.178  0.7828 -0.0391 -1.5843
 2598SOL    HW310396   3.599   0.405   4.080  0.3097 -1.8015  0.0859
 2598SOL    MW410397   3.625   0.420   4.161  0.1075  0.3349 -0.2197
 2599SOL     OW10398   3.800   0.612   4.162 -0.2712  0.3716  0.0608
 2599SOL    HW210399   3.816   0.688   4.219 -0.5090  0.1352  0.4441
 2599SOL    HW310400   3.806   0.647   4.073  2.2213  0.3295  0.1805
 2599SOL    MW410401   3.803   0.627   4.158  0.0262  0.3349  0.1271
 2600SOL     OW10402   3.826   0.804   4.366  0.0952 -0.2650 -0.3182
 2600SOL    HW210403   3.811   0.749   4.444  1.5745 -1.2052 -0.6847
 2600SOL    HW310404   3.742   0.848   4.352 -0.2373 -0.2005  1.7222
 2600SOL    MW410405   3.813   0.802   4.375  0.2465 -0.3805 -0.0973
 2601SOL     OW10406   3.570   0.946   4.348  0.0886 -0.2023  0.1290
 2601SOL    HW210407   3.597   1.004   4.276 -0.5973  1.7791  1.4036
 2601SOL    HW310408   3.511   0.883   4.307  0.8288 -0.0006 -1.2969
 2601SOL    MW410409   3.566   0.946   4.333  0.0958  0.0858  0.1090
 2602SOL     OW10410   3.617   1.155   4.158 -0.3937  0.5416 -0.3465
 2602SOL    HW210411   3.540   1.210   4.172 -0.7705  0.4402 -1.9146
 2602SOL    HW310412   3.626   1.150   4.063  0.4666 -0.9537 -0.2093
 2602SOL    MW410413   3.608   1.161   4.147 -0.3299  0.3310 -0.5353
 2603SOL     OW10414   3.836   1.311   4.254  0.3615  0.3029  0.0790
 2603SOL    HW210415   3.761   1.267   4.215  1.5918 -0.7469 -1.1787
 2603SOL    HW310416   3.848   1.390   4.201 -0.7414  1.2304  1.2004
 2603SOL    MW410417   3.828   1.316   4.242  0.3783  0.2868  0.0610
 2604SOL     OW10418   3.847   1.559   4.124  0.5822 -0.3223 -0.2287
 2604SOL    HW210419   3.917   1.597   4.178  0.1234  0.8390 -0.4561
 2604SOL    HW310420   3.767   1.597   4.158  0.1510 -0.7848 -0.7286
 2604SOL    MW410421   3.846   1.569   4.136  0.4648 -0.2301 -0.3247
 2605SOL     OW10422   3.625   1.712   4.226 -0.4614  0.0750 -0.1297
 2605SOL    HW210423   3.552   1.653   4.206  0.8378 -1.3029 -0.9616
 2605SOL    HW310424   3.626   1.719   4.321 -2.5039  1.1985 -0.1793
 2605SOL    MW410425   3.616   1.705   4.236 -0.5595  0.0415 -0.2460
 2606SOL     OW10426   3.587   1.955   4.121  0.2218 -0.3273  0.3780
 2606SOL    HW210427   3.592   1.865   4.154 -0.2324 -0.3245  0.4496
 2606SOL    HW310428   3.595   1.947   4.026 -3.1903 -0.7388  0.0603
 2606SOL    MW410429   3.589   1.943   4.113 -0.2883 -0.3812  0.3455
 2607SOL     OW10430   3.819   2.020   4.280 -0.0058 -0.1119  0.5262
 2607SOL    HW210431   3.805   1.973   4.362  0.0678 -0.1435  0.5210
 2607SOL    HW310432   3.737   2.010   4.232 -0.4179  0.7960  1.0332
 2607SOL    MW410433   3.806   2.012   4.284 -0.0504  0.0037  0.5924
 2608SOL     OW10434   3.789   2.317   4.217 -0.3169 -0.5955 -0.0369
 2608SOL    HW210435   3.785   2.223   4.234  0.5045 -0.9373 -1.6682
 2608SOL    HW310436   3.778   2.325   4.122 -0.9442  1.0034  0.1511
 2608SOL    MW410437   3.787   2.305   4.207 -0.2913 -0.4297 -0.2273
 2609SOL     OW10438   3.554   2.487   4.283  0.2355 -0.0091  0.0563
 2609SOL    HW210439   3.560   2.518   4.373  1.7831 -0.3167  0.0717
 2609SOL    HW310440   3.622   2.421   4.276  0.3576  0.2612 -1.4436
 2609SOL    MW410441   3.563   2.483   4.294  0.4558 -0.0140 -0.1396
 2610SOL     OW10442   3.551   2.757   4.204  0.2203  0.3472  0.1833
 2610SOL    HW210443   3.553   2.667   4.235  0.8016  0.6725  1.1454
 2610SOL    HW310444   3.577   2.752   4.112  1.6883 -0.3264  0.6164
 2610SOL    MW410445   3.555   2.745   4.196  0.4907  0.3012  0.3674
 2611SOL     OW10446   3.801   2.836   4.307  0.0817 -0.0152  0.1670
 2611SOL    HW210447   3.799   2.857   4.400  0.2534  0.1002  0.1451
 2611SOL    HW310448   3.711   2.812   4.286 -0.0844  0.5487  0.2283
 2611SOL    MW410449   3.789   2.835   4.317  0.0824  0.0744  0.1722
 2612SOL     OW10450   3.792   3.097   4.205 -0.3774 -0.6856 -0.0989
 2612SOL    HW210451   3.791   3.009   4.242 -1.1318 -1.0781 -1.0106
 2612SOL    HW310452   3.796   3.082   4.110  0.7754  0.2742 -0.2046
 2612SOL    MW410453   3.792   3.084   4.197 -0.3249 -0.6108 -0.2332
 2613SOL     OW10454   3.559   3.203   4.315 -0.1779  0.3596  0.0559
 2613SOL    HW210455   3.639   3.168   4.276  0.1573  0.7095  0.4293
 2613SOL    HW310456   3.489   3.149   4.277  0.3648 -1.0223  0.9650
 2613SOL    MW410457   3.560   3.191   4.305 -0.0621  0.2235  0.2251
 2614SOL     OW10458   3.582   3.492   4.229 -0.4696 -0.7484 -0.0351
 2614SOL    HW210459   3.568   3.401   4.257 -2.4591 -0.9455 -1.5787
 2614SOL    HW310460   3.499   3.536   4.248  0.9162  1.1156  1.9477
 2614SOL    MW410461   3.569   3.485   4.235 -0.5493 -0.5285  0.0228
 2615SOL     OW10462   3.819   3.632   4.309  0.5869 -0.0240  0.5217
 2615SOL    HW210463   3.890   3.579   4.272  0.6567  0.6483 -0.3026
 2615SOL    HW310464   3.739   3.591   4.277  0.6548  0.8720 -0.8193
 2615SOL    MW410465   3.818   3.619   4.300  0.6051  0.1829  0.2360
 2616SOL     OW10466   3.816   3.867   4.160 -0.2923 -0.0914 -0.0097
 2616SOL    HW210467   3.757   3.926   4.207  0.3956 -0.0539  0.8014
 2616SOL    HW310468   3.822   3.789   4.215  0.1075 -0.2551 -0.2801
 2616SOL    MW410469   3.809   3.864   4.173 -0.1488 -0.1081  0.0616
 2617SOL     OW10470   3.589   4.021   4.275 -0.3432  0.3894  0.3568
 2617SOL    HW210471   3.546   4.051   4.355  1.0452  1.1471  0.8330
 2617SOL    HW310472   3.533   3.951   4.242 -1.0110  0.1900  1.9078
 2617SOL    MW410473   3.576   4.016   4.281 -0.2481  0.4631  0.6243
 2618SOL     OW10474   3.596   4.255   4.141  0.2807  0.1967  0.2487
 2618SOL    HW210475   3.680   4.289   4.172  0.6430 -0.7307  0.3152
 2618SOL    HW310476   3.590   4.168   4.180 -1.4194  0.8338  1.4653
 2618SOL    MW410477   3.606   4.248   4.150  0.1042  0.1584  0.4180
 2619SOL     OW10478   3.808   4.373   4.248 -0.0049 -0.2030 -0.2915
 2619SOL    HW210479   3.874   4.342   4.185  1.4439  1.5040  0.3512
 2619SOL    HW310480   3.800   4.466   4.231  0.5152  0.3238  2.1202
 2619SOL    MW410481   3.816   4.381   4.237  0.2549  0.0917  0.1115
 2620SOL     OW10482   4.254   0.034   4.172  1.1653 -0.5601 -0.2920
 2620SOL    HW210483   4.248  -0.060   4.188  1.0943 -0.6045 -0.5770
 2620SOL    HW310484   4.344   0.056   4.197  0.9569 -0.5629  0.4832
 2620SOL    MW410485   4.265   0.025   4.178  1.1285 -0.5663 -0.2273
 2621SOL     OW10486   3.988   0.146   4.194  0.2637  0.0639 -0.6547
 2621SOL    HW210487   3.988   0.224   4.140  0.7588  0.3178 -0.3031
 2621SOL    HW310488   4.074   0.106   4.178  0.7411  0.5699  0.5287
 2621SOL    MW410489   4.000   0.151   4.185  0.3920  0.1641 -0.4522
 2622SOL     OW10490   4.027   0.397   4.077 -0.1938 -0.0226  0.4360
 2622SOL    HW210491   4.102   0.415   4.135 -0.0499 -0.3690  0.3562
 2622SOL    HW310492   3.954   0.444   4.117 -0.1065 -0.3018  0.9244
 2622SOL    MW410493   4.028   0.406   4.090 -0.1633 -0.1051  0.4899
 2623SOL     OW10494   4.245   0.455   4.256 -0.1342  0.0317 -0.1872
 2623SOL    HW210495   4.259   0.544   4.223 -0.0144 -0.3434 -1.1295
 2623SOL    HW310496   4.327   0.409   4.237  0.1093 -0.0602  1.0398
 2623SOL    MW410497   4.258   0.461   4.250 -0.0862 -0.0299 -0.1496
 2624SOL     OW10498   4.251   0.718   4.172  0.1875  0.5695  0.0181
 2624SOL    HW210499   4.179   0.765   4.213  0.0652  0.3740  0.0328
 2624SOL    HW310500   4.222   0.703   4.082  0.1800  0.4285  0.0440
 2624SOL    MW410501   4.238   0.722   4.165  0.1703  0.5251  0.0234
 2625SOL     OW10502   4.079   0.883   4.279 -0.1331 -0.1676  0.1002
 2625SOL    HW210503   4.062   0.962   4.228 -0.7459 -0.3614 -0.0054
 2625SOL    HW310504   3.994   0.862   4.318  0.1138 -0.5643  0.4230
 2625SOL    MW410505   4.065   0.891   4.278 -0.1814 -0.2455  0.1289
 2626SOL     OW10506   4.026   1.142   4.168 -0.1379  0.2153 -0.2728
 2626SOL    HW210507   4.104   1.168   4.217 -0.5993  0.3937  0.3788
 2626SOL    HW310508   3.956   1.195   4.206 -0.6262 -0.1524 -0.6612
 2626SOL    MW410509   4.027   1.153   4.180 -0.2632  0.1903 -0.2381
 2627SOL     OW10510   4.247   1.235   4.294  0.1447  0.4117 -0.0980
 2627SOL    HW210511   4.260   1.227   4.388 -1.8062 -1.3183  0.0710
 2627SOL    HW310512   4.326   1.197   4.255  0.8449  0.9113  0.8231
 2627SOL    MW410513   4.259   1.229   4.301 -0.0203  0.2493  0.0458
 2628SOL     OW10514   4.243   1.500   4.198 -0.0235 -0.1177  0.4972
 2628SOL    HW210515   4.241   1.404   4.206  0.1200 -0.2261 -0.6920
 2628SOL    HW310516   4.240   1.516   4.104 -1.6742  1.0987  0.7372
 2628SOL    MW410517   4.243   1.489   4.187 -0.2223  0.0285  0.3719
 2629SOL     OW10518   4.052   1.681   4.261  0.3200 -0.3930  0.0040
 2629SOL    HW210519   4.075   1.709   4.350  0.5330 -0.6269  0.0234
 2629SOL    HW310520   4.122   1.621   4.236 -0.2209 -1.0412  0.0315
 2629SOL    MW410521   4.064   1.677   4.270  0.2767 -0.5094  0.0102
 2630SOL     OW10522   4.030   1.941   4.137  0.2418  0.3140  0.0682
 2630SOL    HW210523   4.033   1.856   4.181 -0.2304 -0.2343 -0.9253
 2630SOL    HW310524   3.964   1.991   4.184  1.0243  0.3887  1.0994
 2630SOL    MW410525   4.022   1.936   4.149  0.2827  0.2515  0.0732
 2631SOL     OW10526   4.461   1.885   4.222  0.0641  0.4985  0.2464
 2631SOL    HW210527   4.533   1.941   4.252 -0.2935  0.2757  1.5463
 2631SOL    HW310528   4.383   1.941   4.228 -0.2082  0.0520  1.0232
 2631SOL    MW410529   4.460   1.900   4.227 -0.0190  0.4102  0.5204
 2632SOL     OW10530   4.252   2.314   4.145  0.0703 -0.0907  0.3135
 2632SOL    HW210531   4.179   2.356   4.191 -1.3136 -0.6006 -1.3197
 2632SOL    HW310532   4.238   2.220   4.160  0.0342 -0.2196 -0.4553
 2632SOL    MW410533   4.240   2.307   4.153 -0.1171 -0.1750 -0.0034
 2633SOL     OW10534   4.047   2.441   4.278  0.3348  0.3770 -0.8730
 2633SOL    HW210535   4.044   2.459   4.371  0.2843  1.0941 -1.0135
 2633SOL    HW310536   3.962   2.400   4.259  0.7006 -0.6016 -0.4415
 2633SOL    MW410537   4.035   2.438   4.288  0.3764  0.3425 -0.8346
 2634SOL     OW10538   4.005   2.694   4.190  0.3565 -0.4054 -0.2918
 2634SOL    HW210539   4.015   2.605   4.225  0.9187 -0.7129 -1.2157
 2634SOL    HW310540   3.929   2.730   4.236  0.8037 -0.9708  0.8909
 2634SOL    MW410541   3.996   2.687   4.201  0.4897 -0.5206 -0.2576
 2635SOL     OW10542   4.234   2.798   4.289  0.1237 -0.6408  0.4716
 2635SOL    HW210543   4.163   2.762   4.235  1.2480  0.2075 -1.6333
 2635SOL    HW310544   4.313   2.754   4.257  1.1032  1.5056 -0.1175
 2635SOL    MW410545   4.235   2.787   4.277  0.4013 -0.2457  0.1161
 2636SOL     OW10546   4.228   3.056   4.183  0.1877 -0.0055 -0.2676
 2636SOL    HW210547   4.220   2.966   4.214  0.5803  0.2256  0.5158
 2636SOL    HW310548   4.246   3.048   4.089 -0.3674 -0.7250 -0.3095
 2636SOL    MW410549   4.229   3.043   4.174  0.1663 -0.0700 -0.1697
 2637SOL     OW10550   4.025   3.223   4.274 -0.0191 -0.1853  0.4453
 2637SOL    HW210551   4.104   3.177   4.244 -0.3429 -1.8996  2.1411
 2637SOL    HW310552   3.952   3.171   4.239 -0.4027  0.7109 -0.1004
 2637SOL    MW410553   4.026   3.210   4.265 -0.1124 -0.2933  0.5970
 2638SOL     OW10554   4.068   3.481   4.211 -0.1375  0.4690 -0.4755
 2638SOL    HW210555   4.044   3.390   4.231  1.6762  0.3565  1.4095
 2638SOL    HW310556   4.061   3.487   4.116  0.7394 -1.9668 -0.7400
 2638SOL    MW410557   4.064   3.469   4.202  0.2175  0.1328 -0.2617
 2639SOL     OW10558   4.302   3.626   4.261  0.2879  0.0239 -0.0966
 2639SOL    HW210559   4.290   3.715   4.226 -0.8057  0.7307  1.9694
 2639SOL    HW310560   4.214   3.588   4.261  0.5679 -0.6320  0.1414
 2639SOL    MW410561   4.289   3.633   4.257  0.1806  0.0306  0.2074
 2640SOL     OW10562   4.299   3.886   4.159  0.4318  0.6505  0.2165
 2640SOL    HW210563   4.217   3.928   4.185  0.2653  0.1236  0.5487
 2640SOL    HW310564   4.293   3.878   4.064 -1.1902 -2.0398  0.5202
 2640SOL    MW410565   4.288   3.891   4.150  0.1958  0.2260  0.3004
 2641SOL     OW10566   4.060   3.994   4.246  0.3141 -0.0782 -0.1353
 2641SOL    HW210567   4.062   3.987   4.341  0.3600  1.0035 -0.0538
 2641SOL    HW310568   3.972   3.966   4.221 -0.3447  1.4850  0.3829
 2641SOL    MW410569   4.049   3.989   4.255  0.2332  0.2707 -0.0562
 2642SOL     OW10570   4.055   4.254   4.101  0.2820 -0.0675 -0.0805
 2642SOL    HW210571   4.114   4.316   4.145 -1.2518  0.2618  1.5733
 2642SOL    HW310572   4.057   4.176   4.157 -0.1909 -0.3759 -0.4938
 2642SOL    MW410573   4.063   4.252   4.114  0.0173 -0.0647  0.0832
 2643SOL     OW10574   4.394   0.048   4.712  0.0514  0.1626  0.2089
 2643SOL    HW210575   4.396   0.142   4.732  0.6540 -0.0305  1.0453
 2643SOL    HW310576   4.436   0.006   4.787 -0.5303 -0.8076 -0.0029
 2643SOL    MW410577   4.400   0.055   4.724  0.0542  0.0091  0.2913
 2644SOL     OW10578   4.405   0.322   4.766  0.3477 -0.3607  0.1069
 2644SOL    HW210579   4.335   0.387   4.760  0.6184 -0.0649  0.1866
 2644SOL    HW310580   4.456   0.334   4.686  1.9044  1.2431  1.3182
 2644SOL    MW410581   4.402   0.332   4.755  0.5888 -0.1101  0.2773
 2645SOL     OW10582   4.168   4.659   4.557 -0.1724 -0.2707 -0.4783
 2645SOL    HW210583   4.140   4.742   4.520 -0.3663 -0.6535 -1.2022
 2645SOL    HW310584   4.242   4.681   4.614 -0.0610  0.3610 -0.8708
 2645SOL    MW410585   4.174   4.673   4.559 -0.1833 -0.2378 -0.6256
 2646SOL     OW10586   3.753   0.171   4.666 -0.1829 -0.0596 -0.0931
 2646SOL    HW210587   3.780   0.080   4.655 -1.0836 -0.5376  1.5376
 2646SOL    HW310588   3.661   0.172   4.641 -0.0891  0.4690 -0.4247
 2646SOL    MW410589   3.744   0.159   4.661 -0.2894 -0.0529  0.0783
 2647SOL     OW10590   4.144   1.166   4.885 -0.1639 -0.0038 -0.3068
 2647SOL    HW210591   4.238   1.160   4.867 -0.6789 -1.9318 -2.7121
 2647SOL    HW310592   4.111   1.225   4.817 -0.8530 -0.2668 -0.2028
 2647SOL    MW410593   4.152   1.173   4.874 -0.3228 -0.2928 -0.6104
 2648SOL     OW10594   0.114   0.098   4.528  0.2578 -0.0397  0.1343
 2648SOL    HW210595   0.052   0.062   4.591  0.1636 -0.0379  0.0430
 2648SOL    HW310596   0.108   0.193   4.541  0.5253 -0.0595  0.3928
 2648SOL    MW410597   0.105   0.106   4.538  0.2807 -0.0421  0.1563
 2649SOL     OW10598   0.676   0.721   4.581  0.3276  0.2341 -0.4633
 2649SOL    HW210599   0.590   0.764   4.584 -0.3063 -0.8520 -2.5653
 2649SOL    HW310600   0.656   0.628   4.588  1.4752  0.0499  0.6237
 2649SOL    MW410601   0.662   0.715   4.583  0.3954  0.0665 -0.5972
 2650SOL     OW10602   4.414   0.816   4.528 -0.5851 -0.4428  0.8088
 2650SOL    HW210603   4.390   0.723   4.520  0.2289 -0.6753  0.9828
 2650SOL    HW310604   4.446   0.840   4.441  0.1188 -0.5988  1.0176
 2650SOL    MW410605   4.415   0.807   4.516 -0.3848 -0.4940  0.8593
 2651SOL     OW10606   0.462   1.095   4.628 -0.1523 -0.4899  0.4050
 2651SOL    HW210607   0.394   1.118   4.565  0.5802  0.5095 -0.0509
 2651SOL    HW310608   0.458   1.000   4.634 -0.9867 -0.5085 -0.2968
 2651SOL    MW410609   0.453   1.086   4.621 -0.1658 -0.3605  0.2522
 2652SOL     OW10610   0.408   2.097   4.633  0.2224 -0.0287 -0.3365
 2652SOL    HW210611   0.454   2.122   4.713  0.7367  1.5285 -1.0910
 2652SOL    HW310612   0.471   2.046   4.584  0.4253  0.3026 -0.4217
 2652SOL    MW410613   0.422   2.094   4.637  0.3171  0.2205 -0.4473
 2653SOL     OW10614   4.264   1.206   4.569  0.2485 -0.4089  0.3250
 2653SOL    HW210615   4.232   1.117   4.554  0.9828 -0.7746  0.8557
 2653SOL    HW310616   4.334   1.195   4.633 -0.7024  0.7449  1.5722
 2653SOL    MW410617   4.269   1.193   4.575  0.2199 -0.3049  0.5596
 2654SOL     OW10618   4.453   2.055   4.597 -0.6403  0.0385  0.1359
 2654SOL    HW210619   4.363   2.040   4.570 -0.3314 -0.5919 -0.5753
 2654SOL    HW310620   4.467   2.149   4.582 -0.8143 -0.0908 -0.9056
 2654SOL    MW410621   4.443   2.066   4.591 -0.6225 -0.0618 -0.0953
 2655SOL     OW10622   0.382   1.665   4.184 -0.1098  0.2505 -0.4930
 2655SOL    HW210623   0.311   1.604   4.163 -0.5056  0.8907 -1.0566
 2655SOL    HW310624   0.462   1.615   4.170 -0.4530 -0.8296  1.2422
 2655SOL    MW410625   0.383   1.650   4.180 -0.2073  0.1925 -0.3384
 2656SOL     OW10626   4.183   2.085   4.516  0.2831 -0.1779  0.4029
 2656SOL    HW210627   4.161   1.994   4.533  0.1370  0.0017  1.1927
 2656SOL    HW310628   4.130   2.135   4.579 -1.1884  0.5702 -1.3802
 2656SOL    MW410629   4.173   2.080   4.527  0.0697 -0.0555  0.2719
 2657SOL     OW10630   3.716   2.146   4.606  0.6024  0.1920  0.9224
 2657SOL    HW210631   3.774   2.191   4.667  1.3273  2.7116 -1.5488
 2657SOL    HW310632   3.629   2.179   4.626  0.7614  0.5588  1.0081
 2657SOL    MW410633   3.712   2.156   4.616  0.7190  0.5728  0.6077
 2658SOL     OW10634   4.389   2.699   4.679  0.2021  0.4813  0.0262
 2658SOL    HW210635   4.417   2.610   4.697  1.5484  0.9883  0.4691
 2658SOL    HW310636   4.457   2.735   4.622 -0.8481  0.9004 -0.9861
 2658SOL    MW410637   4.402   2.692   4.674  0.2412  0.6035 -0.0490
 2659SOL     OW10638   0.387   2.913   4.573  0.3334 -0.0838  0.4957
 2659SOL    HW210639   0.361   3.005   4.571  1.3075  0.2091  0.6626
 2659SOL    HW310640   0.310   2.865   4.545 -0.3775  0.7455  0.9979
 2659SOL    MW410641   0.373   2.919   4.569  0.3681  0.0642  0.5840
 2660SOL     OW10642   4.342   2.916   4.849 -0.0626 -0.0456  0.1408
 2660SOL    HW210643   4.251   2.894   4.871  0.1977 -2.2856 -0.9121
 2660SOL    HW310644   4.375   2.839   4.803  2.1300  1.0769 -0.2274
 2660SOL    MW410645   4.334   2.903   4.846  0.2611 -0.1931 -0.0467
 2661SOL     OW10646   4.473   3.416   4.762  0.2155  0.4125 -0.0469
 2661SOL    HW210647   4.459   3.321   4.755  0.9779  0.2661  0.2741
 2661SOL    HW310648   4.399   3.447   4.814 -0.4359  0.1028 -0.7921
 2661SOL    MW410649   4.462   3.408   4.768  0.2302  0.3523 -0.1028
 2662SOL     OW10650   0.344   3.285   4.549 -0.5021  0.6907  0.5043
 2662SOL    HW210651   0.319   3.355   4.609  0.3437  1.0232  0.4786
 2662SOL    HW310652   0.439   3.293   4.541 -0.2851 -1.0214  1.1939
 2662SOL    MW410653   0.353   3.295   4.556 -0.3619  0.5087  0.5919
 2663SOL     OW10654   4.256   4.415   4.459 -0.2251  0.5922  0.0773
 2663SOL    HW210655   4.216   4.337   4.498 -0.1359  1.1767  1.3709
 2663SOL    HW310656   4.225   4.487   4.513  1.2746  1.2368  0.1192
 2663SOL    MW410657   4.247   4.414   4.471 -0.0155  0.7543  0.2535
 2664SOL     OW10658   4.021   0.762   4.729  0.1569 -0.0287  0.1779
 2664SOL    HW210659   4.062   0.824   4.669 -1.5750  1.0439  0.0681
 2664SOL    HW310660   4.004   0.813   4.808 -1.5446 -0.2598 -0.0166
 2664SOL    MW410661   4.024   0.777   4.731 -0.2961  0.0824  0.1378
 2665SOL     OW10662   3.918   0.383   4.613  0.3104  0.2789  0.8808
 2665SOL    HW210663   3.857   0.317   4.647  1.8884 -0.7966  1.6865
 2665SOL    HW310664   3.967   0.337   4.545 -0.0345  1.2489 -0.0265
 2665SOL    MW410665   3.916   0.368   4.609  0.4731  0.2650  0.8674
 2666SOL     OW10666   4.230   3.439   4.925  0.0149  0.0909  0.0282
 2666SOL    HW210667   4.223   3.438   5.020  0.0496 -0.4476  0.0303
 2666SOL    HW310668   4.185   3.359   4.897 -0.6543  0.6265 -0.4545
 2666SOL    MW410669   4.223   3.428   4.934 -0.0688  0.0906 -0.0352
 2667SOL     OW10670   4.082   4.222   4.530 -0.1444  0.1621 -0.2711
 2667SOL    HW210671   3.995   4.255   4.555 -0.0691 -0.2683  0.5849
 2667SOL    HW310672   4.069   4.128   4.516 -0.0465  0.2861 -1.2474
 2667SOL    MW410673   4.069   4.214   4.532 -0.1215  0.1217 -0.2869
 2668SOL     OW10674   0.233   4.497   4.499  0.0065  0.0217  0.2271
 2668SOL    HW210675   0.172   4.427   4.522 -0.2280 -0.5862 -2.1099
 2668SOL    HW310676   0.178   4.574   4.484 -0.0350 -0.0764 -0.1429
 2668SOL    MW410677   0.218   4.498   4.500 -0.0299 -0.0714 -0.1301
 2669SOL     OW10678   0.145   0.945   4.657  0.2014  0.0735  0.1166
 2669SOL    HW210679   0.077   0.886   4.623  0.7495 -0.4275 -0.1191
 2669SOL    HW310680   0.227   0.902   4.634  0.5912  0.2194  1.2139
 2669SOL    MW410681   0.147   0.932   4.649  0.3251  0.0267  0.2303
 2670SOL     OW10682   1.545   1.788   4.640 -0.3541  0.2594 -0.4158
 2670SOL    HW210683   1.639   1.775   4.626 -0.5783  0.2074 -1.8825
 2670SOL    HW310684   1.508   1.701   4.636 -0.6871  0.4522 -1.4785
 2670SOL    MW410685   1.553   1.775   4.638 -0.4276  0.2780 -0.7495
 2671SOL     OW10686   0.456   4.626   4.638  0.2527  0.1081 -0.1724
 2671SOL    HW210687   0.388   4.588   4.583  0.6458 -0.6469 -0.1353
 2671SOL    HW310688   0.441   4.588   4.724  0.4316  0.3083 -0.0517
 2671SOL    MW410689   0.445   4.616   4.642  0.3282  0.0349 -0.1516
 2672SOL     OW10690   1.146   1.172   4.523 -0.5910 -0.0056  0.1477
 2672SOL    HW210691   1.204   1.104   4.557 -0.4235  0.6447  1.1813
 2672SOL    HW310692   1.060   1.152   4.560 -1.1690 -1.2797 -1.8131
 2672SOL    MW410693   1.142   1.161   4.532 -0.6452 -0.0879  0.0253
 2673SOL     OW10694   0.390   0.807   4.582 -0.4066 -0.3864  0.5467
 2673SOL    HW210695   0.355   0.719   4.572 -0.8840 -0.2186  0.7053
 2673SOL    HW310696   0.407   0.837   4.492 -0.3176 -0.6095  0.4903
 2673SOL    MW410697   0.387   0.799   4.569 -0.4578 -0.3937  0.5602
 2674SOL     OW10698   2.034   1.049   4.491  0.0317 -0.2516 -0.2483
 2674SOL    HW210699   2.106   1.000   4.529 -0.3310 -0.0496  0.7182
 2674SOL    HW310700   2.033   1.132   4.540 -0.1221  0.2232 -1.0411
 2674SOL    MW410701   2.043   1.054   4.503 -0.0365 -0.1623 -0.2254
 2675SOL     OW10702   0.801   1.707   4.509 -0.2318 -0.2215 -0.1051
 2675SOL    HW210703   0.890   1.704   4.544 -0.5270  2.2269  0.9429
 2675SOL    HW310704   0.756   1.633   4.549  0.7086 -0.1335  1.1203
 2675SOL    MW410705   0.807   1.697   4.519 -0.1467  0.1132  0.1948
 2676SOL     OW10706   0.908   1.088   4.631  0.1069 -0.1476  0.2172
 2676SOL    HW210707   0.891   0.999   4.601  1.5603 -0.0703 -0.8496
 2676SOL    HW310708   0.839   1.140   4.590  0.8448 -0.3727 -1.3545
 2676SOL    MW410709   0.896   1.083   4.622  0.3960 -0.1671 -0.1309
 2677SOL     OW10710   0.647   1.990   4.513  0.0732 -0.1506 -0.0551
 2677SOL    HW210711   0.723   2.039   4.545  0.1758  0.3006 -0.9511
 2677SOL    HW310712   0.674   1.898   4.517  0.8820  0.0420 -0.8916
 2677SOL    MW410713   0.661   1.984   4.518  0.1935 -0.0656 -0.2836
 2678SOL     OW10714   0.371   2.391   4.551 -0.1702 -0.8623 -0.1841
 2678SOL    HW210715   0.373   2.296   4.565 -0.5927 -1.0465 -1.3494
 2678SOL    HW310716   0.388   2.402   4.458 -0.1610  0.2086 -0.0579
 2678SOL    MW410717   0.373   2.380   4.541 -0.2247 -0.7453 -0.3212
 2679SOL     OW10718   0.493   1.318   4.786 -0.3080  0.1029 -0.0202
 2679SOL    HW210719   0.478   1.239   4.734  0.2415  0.3407 -0.5458
 2679SOL    HW310720   0.508   1.285   4.875  0.0781 -0.4006 -0.2676
 2679SOL    MW410721   0.493   1.303   4.791 -0.1846  0.0678 -0.1222
 2680SOL     OW10722   4.406   2.364   4.588 -0.2105  0.0859  0.2863
 2680SOL    HW210723   4.485   2.404   4.626  1.0125 -1.8958 -0.0806
 2680SOL    HW310724   4.415   2.377   4.494  0.4761 -1.4529  0.1113
 2680SOL    MW410725   4.418   2.371   4.580  0.0414 -0.3786  0.2148
 2681SOL     OW10726   0.641   2.548   4.546 -0.1093  0.4507  0.8404
 2681SOL    HW210727   0.565   2.497   4.574 -0.9212  1.7397  1.0233
 2681SOL    HW310728   0.713   2.484   4.542 -1.0703 -0.6663  1.2060
 2681SOL    MW410729   0.641   2.532   4.549 -0.3432  0.4734  0.9128
 2682SOL     OW10730   0.137   2.533   4.653 -0.0607  0.6266 -0.6506
 2682SOL    HW210731   0.218   2.484   4.634  0.7794  1.4592  0.7170
 2682SOL    HW310732   0.156   2.622   4.626  0.5848  1.4874  2.4884
 2682SOL    MW410733   0.150   2.538   4.647  0.1353  0.8501 -0.0560
 2683SOL     OW10734   1.152   3.242   4.545 -0.5279  0.1297 -0.3171
 2683SOL    HW210735   1.213   3.169   4.556  0.2047  0.8165  0.2195
 2683SOL    HW310736   1.153   3.260   4.451 -1.3254 -1.0689 -0.5686
 2683SOL    MW410737   1.160   3.235   4.534 -0.5365  0.0622 -0.2795
 2684SOL     OW10738   0.887   2.879   4.651  0.1597 -0.3111 -0.3592
 2684SOL    HW210739   0.810   2.872   4.594 -0.0318  0.9753 -0.2722
 2684SOL    HW310740   0.851   2.901   4.737  0.5660 -0.4890 -0.1421
 2684SOL    MW410741   0.872   2.881   4.655  0.1880 -0.1649 -0.3191
 2685SOL     OW10742   1.363   0.007   4.514 -0.1730 -0.1050 -0.2528
 2685SOL    HW210743   1.275  -0.002   4.551  0.8795 -0.2476  2.3138
 2685SOL    HW310744   1.402  -0.081   4.522  0.8017  0.3624  0.2392
 2685SOL    MW410745   1.357  -0.006   4.520  0.0945 -0.0621  0.1507
 2686SOL     OW10746   0.125   2.789   4.541  0.2001  0.9992  0.2869
 2686SOL    HW210747   0.113   2.884   4.546 -0.7571  0.9748 -0.9806
 2686SOL    HW310748   0.150   2.774   4.450 -0.4972 -0.0324  0.2570
 2686SOL    MW410749   0.127   2.800   4.529 -0.0182  0.8599  0.1157
 2687SOL     OW10750   0.247   3.501   4.706  0.1004  0.3856 -0.4411
 2687SOL    HW210751   0.152   3.491   4.698  0.1902 -1.7144  0.7319
 2687SOL    HW310752   0.263   3.499   4.801  1.3566  0.2739 -0.6488
 2687SOL    MW410753   0.236   3.500   4.718  0.2780  0.0938 -0.3137
 2688SOL     OW10754   0.797   4.484   4.491 -0.4117 -0.7746 -0.6371
 2688SOL    HW210755   0.820   4.414   4.551 -0.5808 -1.2571 -1.1268
 2688SOL    HW310756   0.755   4.439   4.417 -1.4826 -0.0735 -0.4726
 2688SOL    MW410757   0.794   4.469   4.489 -0.5753 -0.7457 -0.6800
 2689SOL     OW10758   0.014   4.322   4.551 -0.1440  0.0211 -0.1162
 2689SOL    HW210759   0.001   4.227   4.560 -0.6999  0.0896 -0.1478
 2689SOL    HW310760  -0.070   4.354   4.516  0.3241  0.4171 -0.8730
 2689SOL    MW410761   0.001   4.313   4.548 -0.1556  0.0824 -0.2202
 2690SOL     OW10762   0.024   4.034   4.519 -0.0807 -0.1092 -0.7474
 2690SOL    HW210763   0.109   3.995   4.501 -0.1566 -0.8495  0.4221
 2690SOL    HW310764  -0.033   3.959   4.538 -0.3748  0.5234  0.9252
 2690SOL    MW410765   0.028   4.019   4.519 -0.1295 -0.1234 -0.3724
 2691SOL     OW10766   0.268   3.908   4.454  0.0994 -0.2818 -0.8275
 2691SOL    HW210767   0.350   3.957   4.451 -0.2931  0.3727 -0.9657
 2691SOL    HW310768   0.295   3.816   4.456  0.8315 -0.0753 -1.0405
 2691SOL    MW410769   0.283   3.902   4.454  0.1442 -0.1682 -0.8739
 2692SOL     OW10770   0.846   0.091   4.474 -0.0291 -0.4929 -0.0325
 2692SOL    HW210771   0.883   0.108   4.388 -1.6538  1.5023 -0.3920
 2692SOL    HW310772   0.832  -0.004   4.477  1.6694 -0.7890 -1.2673
 2692SOL    MW410773   0.849   0.081   4.463 -0.0194 -0.2687 -0.2429
 2693SOL     OW10774   0.570   0.145   4.468  0.1257  0.0145 -0.0744
 2693SOL    HW210775   0.536   0.078   4.526  0.0776 -0.4409 -0.6231
 2693SOL    HW310776   0.664   0.127   4.461  0.0599 -0.1873 -0.4663
 2693SOL    MW410777   0.578   0.134   4.474  0.1107 -0.0722 -0.1985
 2694SOL     OW10778   0.594   0.433   4.536  0.6834 -0.0552 -0.0760
 2694SOL    HW210779   0.645   0.462   4.461 -0.4472  0.2215 -0.7436
 2694SOL    HW310780   0.574   0.341   4.517 -1.5731  0.6569 -1.2236
 2694SOL    MW410781   0.598   0.425   4.524  0.2365  0.0753 -0.3155
 2695SOL     OW10782   1.415   1.552   4.615 -0.1198  0.0091  1.0004
 2695SOL    HW210783   1.331   1.517   4.585  0.2915  0.6102 -0.9129
 2695SOL    HW310784   1.476   1.479   4.608  0.1706  0.3955 -0.4855
 2695SOL    MW410785   1.412   1.538   4.610 -0.0272  0.1394  0.5519
 2696SOL     OW10786   1.318   0.931   4.566 -0.2725  0.2435  0.5780
 2696SOL    HW210787   1.306   0.925   4.471 -0.7405 -2.5349  0.7749
 2696SOL    HW310788   1.403   0.975   4.576 -0.7203  1.5576 -1.0913
 2696SOL    MW410789   1.328   0.936   4.555 -0.3933  0.0503  0.3838
 2697SOL     OW10790   0.217   1.185   4.502  0.6269  0.4243 -0.3863
 2697SOL    HW210791   0.191   1.111   4.557  2.1184  0.0382 -0.1652
 2697SOL    HW310792   0.192   1.262   4.552  1.0276  0.0681  0.3792
 2697SOL    MW410793   0.210   1.185   4.516  0.8765  0.3264 -0.2561
 2698SOL     OW10794   0.705   1.232   4.525  0.0204 -0.3341 -0.0279
 2698SOL    HW210795   0.680   1.312   4.572 -1.5808 -0.9484  0.2126
 2698SOL    HW310796   0.632   1.172   4.542  0.8048 -1.5369 -0.9316
 2698SOL    MW410797   0.692   1.235   4.533 -0.0874 -0.5738 -0.1154
 2699SOL     OW10798   1.091   0.589   4.553 -0.0604  0.2384 -0.0496
 2699SOL    HW210799   1.052   0.675   4.567 -0.4212  0.3407 -1.6177
 2699SOL    HW310800   1.027   0.528   4.589 -0.1071  0.5859  0.4668
 2699SOL    MW410801   1.078   0.593   4.560 -0.1141  0.2977 -0.1883
 2700SOL     OW10802   1.589   1.012   4.643  0.4532  0.2477  0.0988
 2700SOL    HW210803   1.658   0.990   4.580  0.2034  0.8640 -0.3987
 2700SOL    HW310804   1.576   0.932   4.694  0.3337 -0.4027 -0.9413
 2700SOL    MW410805   1.596   0.998   4.641  0.4045  0.2432 -0.1041
 2701SOL     OW10806   0.634   1.492   4.599 -0.0222  0.2803  0.6108
 2701SOL    HW210807   0.567   1.511   4.533  0.8221  1.4329  0.0724
 2701SOL    HW310808   0.588   1.441   4.666 -1.0584 -0.3185 -0.5245
 2701SOL    MW410809   0.619   1.488   4.599 -0.0475  0.3534  0.3899
 2702SOL     OW10810   1.311   2.477   4.543 -0.0777 -0.0335  0.1645
 2702SOL    HW210811   1.320   2.481   4.448  3.1344  0.4396  0.4232
 2702SOL    HW310812   1.236   2.533   4.563 -1.2726 -0.7742 -2.1280
 2702SOL    MW410813   1.302   2.485   4.533  0.1884 -0.0688 -0.1038
 2703SOL     OW10814   1.089   2.661   4.576 -0.1506 -0.9013 -0.3484
 2703SOL    HW210815   1.035   2.726   4.621  0.7455 -0.9376  0.8067
 2703SOL    HW310816   1.072   2.677   4.483 -1.3283 -0.2210 -0.0333
 2703SOL    MW410817   1.080   2.672   4.570 -0.1878 -0.8164 -0.1544
 2704SOL     OW10818   1.543   2.835   4.532  0.1083 -0.8157 -0.3124
 2704SOL    HW210819   1.539   2.746   4.565  0.3421 -1.1190 -1.0900
 2704SOL    HW310820   1.630   2.866   4.554 -0.0220 -0.7288  0.0832
 2704SOL    MW410821   1.554   2.827   4.539  0.1219 -0.8443 -0.3628
 2705SOL     OW10822   1.533   3.587   4.499 -0.2543 -0.0318 -0.1561
 2705SOL    HW210823   1.606   3.531   4.524  0.3596  1.3979  1.3112
 2705SOL    HW310824   1.456   3.546   4.540 -0.0279 -0.5883 -0.2870
 2705SOL    MW410825   1.532   3.574   4.507 -0.1434  0.0834  0.0202
 2706SOL     OW10826   0.650   2.813   4.511 -0.3185  0.2515  0.2977
 2706SOL    HW210827   0.650   2.720   4.536  1.4328  0.8111  2.5829
 2706SOL    HW310828   0.559   2.841   4.523 -0.6299 -0.8987  0.7154
 2706SOL    MW410829   0.638   2.804   4.516 -0.1285  0.1736  0.6543
 2707SOL     OW10830   0.738   3.832   4.433  0.3147 -0.0106 -0.2648
 2707SOL    HW210831   0.680   3.903   4.460  1.1440  0.1960  0.9884
 2707SOL    HW310832   0.736   3.835   4.338 -1.6226  0.0909 -0.2508
 2707SOL    MW410833   0.730   3.842   4.424  0.1685  0.0300 -0.0976
 2708SOL     OW10834   1.179   3.339   4.283  0.5885 -0.5001  0.1665
 2708SOL    HW210835   1.087   3.360   4.267  0.2868 -0.3247  1.9848
 2708SOL    HW310836   1.225   3.421   4.263  0.1569 -0.0948  0.7900
 2708SOL    MW410837   1.173   3.353   4.278  0.4918 -0.4235  0.4887
 2709SOL     OW10838   0.895   3.126   4.496 -0.3017 -0.5208  0.6619
 2709SOL    HW210839   0.886   3.052   4.556  0.0738 -0.4117  0.8574
 2709SOL    HW310840   0.976   3.169   4.524 -0.1626 -0.4319  0.1140
 2709SOL    MW410841   0.905   3.122   4.508 -0.2338 -0.4947  0.6154
 2710SOL     OW10842   1.787   3.499   4.598  0.2902  0.4307  0.1576
 2710SOL    HW210843   1.837   3.438   4.652  0.4458  0.6397  0.2500
 2710SOL    HW310844   1.850   3.567   4.574  0.1478  0.4918 -0.0444
 2710SOL    MW410845   1.802   3.500   4.602  0.2920  0.4663  0.1431
 2711SOL     OW10846   0.614   3.289   4.484 -0.1716  0.2471  0.5637
 2711SOL    HW210847   0.688   3.251   4.531 -0.4667  0.4456  1.2002
 2711SOL    HW310848   0.619   3.382   4.502 -1.9960 -0.0151  2.7097
 2711SOL    MW410849   0.624   3.296   4.493 -0.4512  0.2387  0.9308
 2712SOL     OW10850   0.910   4.102   4.484 -0.1707  0.1155 -0.7674
 2712SOL    HW210851   0.860   4.031   4.524  2.0502 -0.8586  0.4285
 2712SOL    HW310852   0.947   4.063   4.404 -0.7814  0.6120 -1.2892
 2712SOL    MW410853   0.909   4.087   4.479  0.0417  0.0525 -0.6785
 2713SOL     OW10854   0.522   4.012   4.445 -0.0415  0.1633 -0.2421
 2713SOL    HW210855   0.528   4.000   4.351  1.5733  0.9337 -0.2640
 2713SOL    HW310856   0.517   4.107   4.457  0.7596  0.1273  0.4776
 2713SOL    MW410857   0.522   4.023   4.434  0.2773  0.2602 -0.1500
 2714SOL     OW10858   0.489   4.283   4.517  0.0115  0.2738 -0.2363
 2714SOL    HW210859   0.502   4.365   4.471 -0.3138  0.2068 -0.4428
 2714SOL    HW310860   0.428   4.304   4.588  0.5758  0.3954  0.2218
 2714SOL    MW410861   0.483   4.297   4.520  0.0430  0.2810 -0.2031
 2715SOL     OW10862   1.499   4.000   4.620 -0.2856  0.5759 -0.2358
 2715SOL    HW210863   1.575   4.031   4.571 -0.6548  1.5140 -0.2378
 2715SOL    HW310864   1.532   3.929   4.675  0.3546  0.2433 -1.0488
 2715SOL    MW410865   1.513   3.995   4.621 -0.2498  0.6558 -0.3434
 2716SOL     OW10866   1.487   4.432   4.547 -0.1407  0.4577  0.3663
 2716SOL    HW210867   1.560   4.451   4.606  0.8169 -0.6979 -0.4344
 2716SOL    HW310868   1.528   4.422   4.461 -1.3100  0.2681 -0.1732
 2716SOL    MW410869   1.502   4.433   4.544 -0.1687  0.2802  0.1895
 2717SOL     OW10870   1.095   4.634   4.613  0.1665  0.0429 -0.8533
 2717SOL    HW210871   1.087   4.539   4.604 -0.9023  0.1468 -1.1587
 2717SOL    HW310872   1.008   4.667   4.591  0.1775  1.0051  0.4696
 2717SOL    MW410873   1.082   4.626   4.609  0.0269  0.1836 -0.7191
 2718SOL     OW10874   0.913   0.367   4.619  0.0274  0.2583 -0.1744
 2718SOL    HW210875   0.963   0.286   4.609 -0.6494 -0.0798 -0.8588
 2718SOL    HW310876   0.821   0.339   4.617 -0.1876  0.7752  1.9766
 2718SOL    MW410877   0.908   0.353   4.617 -0.0903  0.2819  0.0191
 2719SOL     OW10878   1.834   0.024   4.573 -0.2092 -0.0843 -0.3461
 2719SOL    HW210879   1.781  -0.034   4.626  0.6903  0.9038  1.6766
 2719SOL    HW310880   1.778   0.099   4.554  0.6042  1.2638  2.3393
 2719SOL    MW410881   1.820   0.027   4.577  0.0168  0.2240  0.2751
 2720SOL     OW10882   1.574   0.486   4.507 -0.1896  0.3266 -0.3624
 2720SOL    HW210883   1.493   0.512   4.550 -0.2420  0.0299 -0.2804
 2720SOL    HW310884   1.642   0.538   4.550 -0.4216  1.0867 -0.9058
 2720SOL    MW410885   1.572   0.496   4.518 -0.2271  0.3878 -0.4233
 2721SOL     OW10886   1.060   1.703   4.591 -0.1898  0.2886  0.0310
 2721SOL    HW210887   1.135   1.750   4.555 -0.6317  0.9221 -0.0887
 2721SOL    HW310888   1.083   1.611   4.583  0.2909  0.4589 -0.6357
 2721SOL    MW410889   1.073   1.697   4.585 -0.1847  0.3946 -0.0727
 2722SOL     OW10890   0.925   0.810   4.563  0.1583  0.7012  0.5213
 2722SOL    HW210891   0.918   0.852   4.477  0.4310 -0.6893 -0.1999
 2722SOL    HW310892   0.842   0.764   4.574  1.0215 -1.0508 -0.0609
 2722SOL    MW410893   0.913   0.810   4.553  0.3082  0.2866  0.3493
 2723SOL     OW10894   1.749   0.662   4.637  0.5357 -1.0150 -0.0713
 2723SOL    HW210895   1.777   0.733   4.579  0.2891  0.9949  2.1522
 2723SOL    HW310896   1.702   0.707   4.708 -0.2002 -3.4815  1.0604
 2723SOL    MW410897   1.747   0.678   4.639  0.4061 -1.0752  0.3714
 2724SOL     OW10898   1.803   1.467   4.636 -0.0605  0.3769 -0.2847
 2724SOL    HW210899   1.895   1.441   4.623 -0.2471 -0.9843  0.9495
 2724SOL    HW310900   1.797   1.554   4.597  1.2354 -0.3969 -2.3153
 2724SOL    MW410901   1.814   1.475   4.629  0.0859  0.0953 -0.3898
 2725SOL     OW10902   1.158   2.064   4.485  0.5323  0.0470 -0.5385
 2725SOL    HW210903   1.223   1.994   4.480 -0.4457 -1.0150  0.9013
 2725SOL    HW310904   1.195   2.127   4.547  0.8596  0.1734 -0.8665
 2725SOL    MW410905   1.171   2.063   4.493  0.4464 -0.0765 -0.3918
 2726SOL     OW10906   1.835   2.424   4.539 -0.0739  0.3121 -0.0644
 2726SOL    HW210907   1.918   2.468   4.557  0.5316 -0.2955 -1.2914
 2726SOL    HW310908   1.840   2.343   4.589  0.4212 -0.0914 -0.7576
 2726SOL    MW410909   1.846   2.419   4.548  0.0713  0.1787 -0.3178
 2727SOL     OW10910   2.078   2.567   4.590 -0.0036 -0.3039  0.1395
 2727SOL    HW210911   2.033   2.617   4.658  0.4207 -1.0933  1.0120
 2727SOL    HW310912   2.066   2.619   4.510  0.0688  0.9597  0.9402
 2727SOL    MW410913   2.070   2.580   4.588  0.0620 -0.2414  0.3603
 2728SOL     OW10914   0.899   2.424   4.520 -0.3153 -0.3542  0.0678
 2728SOL    HW210915   0.951   2.501   4.542 -0.5531 -0.1797  0.0274
 2728SOL    HW310916   0.903   2.419   4.424 -0.9218  0.0522  0.0149
 2728SOL    MW410917   0.906   2.433   4.510 -0.4267 -0.2776  0.0555
 2729SOL     OW10918   1.332   4.218   4.656  0.1839  0.0205 -0.4161
 2729SOL    HW210919   1.394   4.147   4.640 -0.1320 -0.0314 -1.4708
 2729SOL    HW310920   1.376   4.296   4.623  0.4898  0.3014  0.6497
 2729SOL    MW410921   1.346   4.219   4.649  0.1826  0.0507 -0.4147
 2730SOL     OW10922   1.576   2.568   4.621 -0.2111  0.2446  0.0803
 2730SOL    HW210923   1.503   2.514   4.592 -0.1323 -1.0059  2.1198
 2730SOL    HW310924   1.654   2.514   4.607  0.2357  1.1631 -1.0850
 2730SOL    MW410925   1.577   2.554   4.616 -0.1418  0.2008  0.1956
 2731SOL     OW10926   2.652   2.411   4.812  0.9527  0.2441  0.0852
 2731SOL    HW210927   2.623   2.340   4.869 -0.7344 -0.4659 -1.6019
 2731SOL    HW310928   2.727   2.374   4.764 -0.0435 -0.4811 -0.9321
 2731SOL    MW410929   2.658   2.397   4.814  0.5987  0.0547 -0.2716
 2732SOL     OW10930   1.388   3.074   4.539  0.4190  0.1053 -0.0275
 2732SOL    HW210931   1.426   2.989   4.561  1.4500  0.7543  0.7478
 2732SOL    HW310932   1.457   3.137   4.559 -0.4416  1.1529 -0.3017
 2732SOL    MW410933   1.402   3.071   4.545  0.4415  0.3291  0.0386
 2733SOL     OW10934   1.590   3.764   4.717 -0.3888 -0.3249  0.0203
 2733SOL    HW210935   1.588   3.702   4.790  0.0976 -0.7704 -0.3445
 2733SOL    HW310936   1.575   3.710   4.639  1.9912 -0.2928 -0.5006
 2733SOL    MW410937   1.588   3.749   4.716 -0.0106 -0.3794 -0.0966
 2734SOL     OW10938   0.610   3.582   4.483 -0.3327 -0.5777  0.0226
 2734SOL    HW210939   0.663   3.663   4.483  0.7983 -1.2970 -1.5554
 2734SOL    HW310940   0.522   3.612   4.504 -0.1164  1.2131 -1.4526
 2734SOL    MW410941   0.605   3.597   4.486 -0.1549 -0.4363 -0.3803
 2735SOL     OW10942   2.027   3.671   4.522  0.5285  0.0851  0.0560
 2735SOL    HW210943   2.016   3.648   4.430  0.6652  0.5725 -0.0860
 2735SOL    HW310944   2.075   3.598   4.560  1.1333  0.2246 -0.4293
 2735SOL    MW410945   2.032   3.659   4.515  0.6264  0.1678 -0.0267
 2736SOL     OW10946   1.773   2.944   4.595 -0.0100  0.0737  0.1022
 2736SOL    HW210947   1.776   3.004   4.669  0.2149 -1.1795  1.1334
 2736SOL    HW310948   1.827   2.869   4.622  2.6660  0.9287 -2.5646
 2736SOL    MW410949   1.780   2.942   4.608  0.3727  0.0211 -0.1136
 2737SOL     OW10950   2.138   3.660   4.882  0.6958 -0.1798  0.1899
 2737SOL    HW210951   2.120   3.754   4.880  1.2383 -0.0963 -1.1301
 2737SOL    HW310952   2.214   3.649   4.825  0.6675 -1.4152  0.3788
 2737SOL    MW410953   2.145   3.671   4.875  0.7637 -0.3318  0.0407
 2738SOL     OW10954   1.117   4.338   4.542 -0.3756 -0.0943  0.3553
 2738SOL    HW210955   1.046   4.274   4.545  0.1582 -0.8653 -2.6483
 2738SOL    HW310956   1.190   4.295   4.587 -0.9578 -0.3319  1.0903
 2738SOL    MW410957   1.117   4.324   4.549 -0.3820 -0.2274  0.0560
 2739SOL     OW10958   2.267   4.096   4.674  0.2364 -0.1538 -0.3762
 2739SOL    HW210959   2.258   4.017   4.621 -0.9391 -0.1960 -0.1160
 2739SOL    HW310960   2.361   4.102   4.692  0.5309 -0.6552 -1.6701
 2739SOL    MW410961   2.278   4.086   4.669  0.1202 -0.2255 -0.5126
 2740SOL     OW10962   2.024   0.512   4.579 -0.0456 -0.7123 -0.0666
 2740SOL    HW210963   2.006   0.420   4.602  0.1759 -0.5773  0.6688
 2740SOL    HW310964   1.956   0.561   4.625  0.7891 -0.3819  0.8364
 2740SOL    MW410965   2.012   0.506   4.588  0.0937 -0.6509  0.1496
 2741SOL     OW10966   1.607   0.185   4.518  0.2538 -0.2023 -0.3299
 2741SOL    HW210967   1.600   0.278   4.493 -0.5663 -0.2112 -0.1487
 2741SOL    HW310968   1.516   0.155   4.522  0.5651 -1.2842 -1.3853
 2741SOL    MW410969   1.594   0.194   4.515  0.1866 -0.3462 -0.4453
 2742SOL     OW10970   1.552   0.788   4.818 -0.0060 -0.2210  0.1642
 2742SOL    HW210971   1.473   0.745   4.788 -0.3521  0.4244  0.1530
 2742SOL    HW310972   1.527   0.829   4.901 -0.3890  2.1133 -1.0550
 2742SOL    MW410973   1.539   0.788   4.825 -0.1022  0.1722  0.0019
 2743SOL     OW10974   2.294   0.159   4.518  0.1160  0.5118 -0.2009
 2743SOL    HW210975   2.267   0.158   4.426 -0.2194  0.8459 -0.1075
 2743SOL    HW310976   2.237   0.095   4.561  0.2734  0.3551 -0.2244
 2743SOL    MW410977   2.283   0.150   4.511  0.0925  0.5352 -0.1916
 2744SOL     OW10978   1.797   0.907   4.487 -0.6418  0.4244 -0.0783
 2744SOL    HW210979   1.871   0.967   4.479 -0.7150  0.4869 -0.3187
 2744SOL    HW310980   1.765   0.897   4.397  0.1214 -0.9268 -0.2151
 2744SOL    MW410981   1.802   0.914   4.474 -0.5508  0.2544 -0.1280
 2745SOL     OW10982   1.361   0.663   4.628  0.2316  0.1136  0.8160
 2745SOL    HW210983   1.273   0.638   4.598  1.2688 -0.9152 -1.4689
 2745SOL    HW310984   1.371   0.754   4.599  0.5256 -0.2902 -0.3728
 2745SOL    MW410985   1.351   0.671   4.620  0.4072 -0.0754  0.3577
 2746SOL     OW10986   1.521   2.053   4.539 -0.0556  0.1154  0.2193
 2746SOL    HW210987   1.452   2.096   4.590  2.6628  2.1019  2.3894
 2746SOL    HW310988   1.526   1.964   4.574 -0.2503  0.5533  1.3715
 2746SOL    MW410989   1.513   2.047   4.550  0.2774  0.4352  0.6576
 2747SOL     OW10990   0.881   2.153   4.561  0.3290 -0.0037 -0.1556
 2747SOL    HW210991   0.961   2.112   4.529  1.5329  1.9134  0.3417
 2747SOL    HW310992   0.898   2.247   4.558 -2.2626  0.4949 -0.9740
 2747SOL    MW410993   0.893   2.160   4.557  0.1459  0.3150 -0.1980
 2748SOL     OW10994   1.168   1.446   4.599  0.3044 -0.3378  0.2399
 2748SOL    HW210995   1.153   1.356   4.571  0.0296 -0.3920  0.5567
 2748SOL    HW310996   1.178   1.440   4.694  2.0027 -0.2596  0.0941
 2748SOL    MW410997   1.168   1.433   4.608  0.4922 -0.3347  0.2625
 2749SOL     OW10998   1.305   2.198   4.684  0.7020 -0.0244  0.3789
 2749SOL    HW210999   1.313   2.292   4.666  0.4509  0.0532  0.6582
 2749SOL    HW311000   1.257   2.194   4.767 -0.1029 -0.4234 -0.0962
 2749SOL    MW411001   1.300   2.210   4.693  0.5627 -0.0668  0.3530
 2750SOL     OW11002   2.027   1.306   4.553  0.1328  0.6691  0.1501
 2750SOL    HW211003   2.008   1.314   4.459 -0.4172 -0.0056  0.1983
 2750SOL    HW311004   2.109   1.352   4.564  0.3345  0.5446 -0.7194
 2750SOL    MW411005   2.035   1.313   4.542  0.0869  0.5637  0.0417
 2751SOL     OW11006   1.804   1.738   4.541 -0.2841  0.1034 -0.2364
 2751SOL    HW211007   1.852   1.819   4.560 -0.7885  0.4170 -0.2851
 2751SOL    HW311008   1.795   1.737   4.445 -0.6417  0.2033 -0.2053
 2751SOL    MW411009   1.809   1.749   4.531 -0.3979  0.1579 -0.2387
 2752SOL     OW11010   1.761   2.145   4.623  0.2703  0.0152  0.0701
 2752SOL    HW211011   1.677   2.118   4.585  1.2218 -1.8835 -0.7322
 2752SOL    HW311012   1.742   2.156   4.716 -1.1991  1.0148 -0.3300
 2752SOL    MW411013   1.747   2.143   4.630  0.2019 -0.1034 -0.0886
 2753SOL     OW11014   2.267   2.362   4.576 -0.4422  0.0032  0.5172
 2753SOL    HW211015   2.211   2.436   4.600 -0.0526  0.5958 -0.3675
 2753SOL    HW311016   2.278   2.370   4.481  2.0317  0.5345  0.8186
 2753SOL    MW411017   2.261   2.373   4.566 -0.0644  0.1515  0.4402
 2754SOL     OW11018   2.553   2.740   4.485 -0.9292  0.0322 -0.4984
 2754SOL    HW211019   2.506   2.802   4.542 -0.2517 -1.4808  1.7961
 2754SOL    HW311020   2.539   2.655   4.527 -0.0512 -1.0655 -2.4061
 2754SOL    MW411021   2.545   2.737   4.498 -0.7240 -0.3122 -0.4473
 2755SOL     OW11022   1.725   4.468   4.686  0.0122  0.2869  0.2275
 2755SOL    HW211023   1.786   4.411   4.639 -0.7941 -0.3650 -0.0518
 2755SOL    HW311024   1.731   4.439   4.777  0.0283  0.1421  0.1808
 2755SOL    MW411025   1.734   4.456   4.692 -0.0921  0.1818  0.1845
 2756SOL     OW11026   1.947   3.109   4.437 -0.0276  0.1868 -0.5596
 2756SOL    HW211027   2.002   3.156   4.499  0.8019  0.0421 -1.1759
 2756SOL    HW311028   1.898   3.046   4.491  0.6769  0.0718 -0.0500
 2756SOL    MW411029   1.948   3.107   4.452  0.1748  0.1525 -0.5737
 2757SOL     OW11030   1.936   2.744   4.758 -0.1727 -0.2018  0.1965
 2757SOL    HW211031   1.988   2.823   4.744 -0.4762  0.0945  0.7292
 2757SOL    HW311032   1.909   2.749   4.850  0.0339 -1.0619  0.3134
 2757SOL    MW411033   1.939   2.755   4.768 -0.1855 -0.2762  0.2822
 2758SOL     OW11034   2.607   3.709   4.575 -0.0417  0.0127  0.5760
 2758SOL    HW211035   2.524   3.689   4.619  0.3588 -0.7804  0.9698
 2758SOL    HW311036   2.613   3.805   4.577 -0.5236  0.0271  1.3211
 2758SOL    MW411037   2.597   3.719   4.581 -0.0525 -0.0900  0.7263
 2759SOL     OW11038   1.587   3.266   4.608  0.3813  0.0592 -0.3079
 2759SOL    HW211039   1.664   3.261   4.665 -0.2568 -1.8065  0.4164
 2759SOL    HW311040   1.621   3.254   4.520  1.1156  0.9269 -0.1590
 2759SOL    MW411041   1.602   3.264   4.604  0.3940 -0.0724 -0.1927
 2760SOL     OW11042   2.226   3.874   4.525 -0.5171 -0.1910 -0.0852
 2760SOL    HW211043   2.146   3.823   4.513 -1.0350  0.7860 -0.8682
 2760SOL    HW311044   2.240   3.918   4.441  0.7729 -0.2478  0.0852
 2760SOL    MW411045   2.217   3.873   4.512 -0.4152 -0.0696 -0.1661
 2761SOL     OW11046   1.765   4.107   4.529  0.1110 -0.3549 -0.1279
 2761SOL    HW211047   1.778   4.034   4.589 -1.3559 -0.7481 -0.2738
 2761SOL    HW311048   1.782   4.071   4.442  0.0337 -0.3536 -0.1435
 2761SOL    MW411049   1.769   4.093   4.525 -0.0927 -0.4066 -0.1492
 2762SOL     OW11050   2.098   3.924   4.838  0.3448 -0.5225  0.4863
 2762SOL    HW211051   2.011   3.927   4.798  0.1602  1.1120  0.9476
 2762SOL    HW311052   2.149   3.989   4.790  1.4148 -1.7053  0.0060
 2762SOL    MW411053   2.093   3.933   4.827  0.4616 -0.4629  0.4838
 2763SOL     OW11054   2.114   4.646   4.633  0.6230 -0.3020 -0.1076
 2763SOL    HW211055   2.041   4.667   4.575  0.2042  1.6116  1.0717
 2763SOL    HW311056   2.137   4.555   4.612 -0.8313 -0.2775 -1.8308
 2763SOL    MW411057   2.108   4.637   4.623  0.3758 -0.0463 -0.1794
 2764SOL     OW11058   1.945   4.324   4.546 -0.0673  0.4065 -0.3295
 2764SOL    HW211059   1.907   4.236   4.539 -0.6734  0.6038  0.4702
 2764SOL    HW311060   2.035   4.308   4.575 -0.5204  0.1040  0.9295
 2764SOL    MW411061   1.952   4.310   4.549 -0.2070  0.3926 -0.0579
 2765SOL     OW11062   2.479   4.426   4.499  0.4599 -0.1247 -0.1930
 2765SOL    HW211063   2.462   4.404   4.407 -0.2942  0.4346 -0.1920
 2765SOL    HW311064   2.491   4.521   4.499  1.8758 -0.2912  0.0843
 2765SOL    MW411065   2.478   4.436   4.487  0.5472 -0.0728 -0.1563
 2766SOL     OW11066   1.296   1.818   4.459  0.0596  0.3543  0.1309
 2766SOL    HW211067   1.288   1.745   4.397 -0.1009  0.6858 -0.2429
 2766SOL    HW311068   1.372   1.794   4.513  1.3738  0.9301 -1.4064
 2766SOL    MW411069   1.305   1.805   4.458  0.2118  0.4740 -0.1212
 2767SOL     OW11070   2.533   0.030   4.480  0.4787 -0.0351 -0.1501
 2767SOL    HW211071   2.465   0.093   4.502  0.6588  0.4576 -0.9893
 2767SOL    HW311072   2.580   0.069   4.406  1.0858 -0.7900 -0.1770
 2767SOL    MW411073   2.531   0.043   4.473  0.5826 -0.0697 -0.2643
 2768SOL     OW11074   2.533   0.927   4.584  0.1292 -0.2893  0.3053
 2768SOL    HW211075   2.610   0.872   4.569  0.6758  0.2613  1.0874
 2768SOL    HW311076   2.513   0.915   4.677 -0.2016  0.2501  0.3058
 2768SOL    MW411077   2.540   0.918   4.595  0.1577 -0.1455  0.4086
 2769SOL     OW11078   2.700   0.362   4.580  0.4189  0.1074 -0.1364
 2769SOL    HW211079   2.770   0.413   4.539  1.2249 -1.5055 -0.7963
 2769SOL    HW311080   2.619   0.406   4.551  1.0985  0.9400 -0.7969
 2769SOL    MW411081   2.698   0.375   4.571  0.6149  0.0045 -0.3106
 2770SOL     OW11082   2.297   1.383   4.530  0.0783  0.7203  0.0558
 2770SOL    HW211083   2.316   1.466   4.488  0.7092  0.3258 -0.4323
 2770SOL    HW311084   2.382   1.343   4.546 -0.2256  0.0910  0.1354
 2770SOL    MW411085   2.311   1.389   4.527  0.1214  0.5853  0.0019
 2771SOL     OW11086   2.568   1.279   4.501 -0.5260  0.1434  0.1162
 2771SOL    HW211087   2.660   1.300   4.515 -0.3502  0.2338 -1.1165
 2771SOL    HW311088   2.564   1.184   4.506 -0.0902  0.0429 -1.4095
 2771SOL    MW411089   2.579   1.269   4.504 -0.4453  0.1421 -0.2478
 2772SOL     OW11090   2.829   1.345   4.530  0.2041  0.1391 -0.3219
 2772SOL    HW211091   2.871   1.312   4.450  0.1807 -0.2606 -0.1689
 2772SOL    HW311092   2.886   1.317   4.601 -0.2552 -0.2957 -0.1249
 2772SOL    MW411093   2.842   1.337   4.529  0.1404  0.0290 -0.2757
 2773SOL     OW11094   2.370   1.690   4.535 -0.0095  0.2840 -0.4442
 2773SOL    HW211095   2.454   1.736   4.530  0.4247 -0.3972  0.3817
 2773SOL    HW311096   2.359   1.670   4.628 -0.4332 -0.8390 -0.7245
 2773SOL    MW411097   2.379   1.693   4.547 -0.0082  0.0460 -0.3722
 2774SOL     OW11098   1.966   1.980   4.535  0.4211  0.0811  0.4903
 2774SOL    HW211099   1.990   1.989   4.442 -2.5200 -0.9523 -0.4197
 2774SOL    HW311100   1.895   2.043   4.547 -0.6780 -1.3352  1.4778
 2774SOL    MW411101   1.960   1.990   4.524 -0.1120 -0.2421  0.5005
 2775SOL     OW11102   2.505   2.041   4.472 -0.5074  0.5263 -0.0087
 2775SOL    HW211103   2.550   2.125   4.466 -0.5920  0.6228  0.6578
 2775SOL    HW311104   2.419   2.063   4.507 -0.6088  0.1913 -0.0493
 2775SOL    MW411105   2.500   2.055   4.476 -0.5319  0.4948  0.0739
 2776SOL     OW11106   3.058   2.485   4.596  0.1485 -0.7246 -0.3148
 2776SOL    HW211107   3.031   2.577   4.594 -0.5175 -0.8989  0.3017
 2776SOL    HW311108   3.063   2.460   4.504 -0.0251 -0.1696 -0.4790
 2776SOL    MW411109   3.055   2.494   4.584  0.0377 -0.6744 -0.2552
 2777SOL     OW11110   2.511   2.494   4.600 -0.0663 -0.1939 -0.1937
 2777SOL    HW211111   2.420   2.463   4.603 -0.3734  0.7447  0.4605
 2777SOL    HW311112   2.546   2.473   4.686 -0.0103  0.4734 -0.0543
 2777SOL    MW411113   2.503   2.487   4.612 -0.0994  0.0180 -0.0890
 2778SOL     OW11114   2.339   2.927   4.563 -0.2034 -0.0171 -0.2877
 2778SOL    HW211115   2.370   3.016   4.576  0.1620 -0.1532 -0.1964
 2778SOL    HW311116   2.290   2.929   4.481 -1.2346  0.5304  0.3365
 2778SOL    MW411117   2.337   2.939   4.554 -0.2912  0.0372 -0.1933
 2779SOL     OW11118   2.799   2.857   4.525  0.0993 -0.1794  0.0737
 2779SOL    HW211119   2.723   2.800   4.511  1.6606 -2.5793  1.1698
 2779SOL    HW311120   2.764   2.930   4.576 -1.8752 -0.2770 -1.0721
 2779SOL    MW411121   2.784   2.859   4.530  0.0448 -0.5089  0.0671
 2780SOL     OW11122   2.373   3.367   4.408 -0.1543  0.0693  0.1767
 2780SOL    HW211123   2.401   3.453   4.376 -1.4181  0.3254 -0.2897
 2780SOL    HW311124   2.302   3.387   4.469 -0.6576 -0.6497 -0.1692
 2780SOL    MW411125   2.367   3.381   4.412 -0.3875  0.0082  0.0695
 2781SOL     OW11126   1.863   3.865   4.653  0.3339  0.2109  0.1017
 2781SOL    HW211127   1.783   3.813   4.663  0.1951  0.4989  0.4901
 2781SOL    HW311128   1.922   3.809   4.602 -0.4890  0.3853 -1.0752
 2781SOL    MW411129   1.860   3.851   4.647  0.2070  0.2719 -0.0023
 2782SOL     OW11130   2.684   3.980   4.556  0.6863  0.4321  0.1861
 2782SOL    HW211131   2.640   4.056   4.595 -1.3800 -0.9726  0.7023
 2782SOL    HW311132   2.676   3.994   4.462  0.8069  1.1347  0.2806
 2782SOL    MW411133   2.677   3.992   4.549  0.4296  0.3395  0.2666
 2783SOL     OW11134   2.106   2.948   4.701 -0.0275 -0.3187 -0.2162
 2783SOL    HW211135   2.187   2.919   4.659 -0.3363 -1.0887 -0.2962
 2783SOL    HW311136   2.102   3.042   4.685  1.1094 -0.1860  0.2367
 2783SOL    MW411137   2.116   2.956   4.694  0.0818 -0.4028 -0.1670
 2784SOL     OW11138   3.014   4.414   4.489 -0.0958 -0.2032 -0.3107
 2784SOL    HW211139   2.959   4.366   4.551 -0.4518 -0.5226 -0.8748
 2784SOL    HW311140   2.991   4.506   4.502 -0.0337 -0.2536  0.1653
 2784SOL    MW411141   3.004   4.420   4.499 -0.1345 -0.2520 -0.3224
 2785SOL     OW11142   2.941   3.986   4.665  0.4720  0.1330 -0.3137
 2785SOL    HW211143   2.937   3.907   4.719 -0.7341  0.8197  0.6119
 2785SOL    HW311144   2.867   3.977   4.605  0.9772  0.0528 -0.9324
 2785SOL    MW411145   2.931   3.974   4.664  0.3795  0.2130 -0.2732
 2786SOL     OW11146   2.602   4.235   4.653 -0.1911  0.5361  0.1879
 2786SOL    HW211147   2.696   4.254   4.658 -0.3592  0.8970  2.7449
 2786SOL    HW311148   2.567   4.303   4.595  1.1406  0.4047 -0.7641
 2786SOL    MW411149   2.610   4.247   4.646 -0.0376  0.5664  0.3997
 2787SOL     OW11150   2.220   4.365   4.581 -0.0066  0.4808 -0.3516
 2787SOL    HW211151   2.222   4.287   4.637 -0.2894  0.5928 -0.1850
 2787SOL    HW311152   2.312   4.385   4.565  0.1095  1.1175  1.0253
 2787SOL    MW411153   2.232   4.358   4.587 -0.0286  0.5796 -0.1480
 2788SOL     OW11154   3.106   0.570   4.631  0.4711 -0.1036  0.0726
 2788SOL    HW211155   3.185   0.518   4.615  0.5221 -0.1954  0.6199
 2788SOL    HW311156   3.119   0.606   4.719  0.1644  0.3457 -0.0683
 2788SOL    MW411157   3.118   0.568   4.641  0.4373 -0.0564  0.1262
 2789SOL     OW11158   2.803   0.095   4.622 -0.1327  0.5340 -0.0419
 2789SOL    HW211159   2.757   0.178   4.610 -0.5880  0.6786  2.3261
 2789SOL    HW311160   2.736   0.029   4.606 -0.8387  0.7255  1.8936
 2789SOL    MW411161   2.788   0.097   4.619 -0.2859  0.5783  0.5259
 2790SOL     OW11162   3.446   4.590   4.621 -0.0148 -0.2441  0.4818
 2790SOL    HW211163   3.525   4.539   4.606 -0.5012 -0.4930 -1.3360
 2790SOL    HW311164   3.472   4.681   4.602 -0.0673 -0.2734  0.2736
 2790SOL    MW411165   3.460   4.596   4.617 -0.0859 -0.2808  0.2145
 2791SOL     OW11166   2.776   0.817   4.515  0.3172 -0.0465  0.2374
 2791SOL    HW211167   2.782   0.722   4.504  2.0115  0.1754 -0.8023
 2791SOL    HW311168   2.737   0.849   4.434  0.6641  0.2590  0.1903
 2791SOL    MW411169   2.771   0.809   4.503  0.5865  0.0231  0.0940
 2792SOL     OW11170   3.366   0.469   4.559 -0.4130  0.1418 -0.2096
 2792SOL    HW211171   3.427   0.521   4.610 -0.3413 -0.4445  0.2991
 2792SOL    HW311172   3.384   0.493   4.468  0.6365 -0.0972 -0.0665
 2792SOL    MW411173   3.376   0.479   4.553 -0.2651  0.0329 -0.1236
 2793SOL     OW11174   2.271   0.877   4.530  0.4915  0.1949 -0.1146
 2793SOL    HW211175   2.363   0.899   4.541  0.5371  0.2968 -0.6517
 2793SOL    HW311176   2.267   0.783   4.546  0.4571  0.4247  1.2492
 2793SOL    MW411177   2.282   0.867   4.533  0.4930  0.2387 -0.0055
 2794SOL     OW11178   2.969   0.961   4.673  0.3347 -0.0770 -0.4688
 2794SOL    HW211179   2.909   0.919   4.612  0.7789 -0.2075 -0.8206
 2794SOL    HW311180   3.056   0.942   4.638  0.5833  0.0492  0.0746
 2794SOL    MW411181   2.973   0.953   4.660  0.4261 -0.0775 -0.4435
 2795SOL     OW11182   3.139   1.394   4.609  0.6118  0.0146  0.1523
 2795SOL    HW211183   3.089   1.335   4.666  0.6612  0.7251  0.9391
 2795SOL    HW311184   3.097   1.479   4.619 -0.4432 -0.1955 -2.2136
 2795SOL    MW411185   3.127   1.397   4.618  0.4792  0.0806 -0.0561
 2796SOL     OW11186   3.098   1.751   4.541 -0.5522 -1.0267  0.0262
 2796SOL    HW211187   3.019   1.703   4.516 -1.1399  1.0227 -2.3068
 2796SOL    HW311188   3.066   1.838   4.564  0.8154 -0.8124  1.1927
 2796SOL    MW411189   3.083   1.756   4.541 -0.4493 -0.7280 -0.1277
 2797SOL     OW11190   2.630   1.777   4.498 -0.1870  0.3307 -0.0805
 2797SOL    HW211191   2.601   1.868   4.497 -0.0552  0.3680 -0.6586
 2797SOL    HW311192   2.656   1.759   4.408  0.8480  0.0594  0.2641
 2797SOL    MW411193   2.630   1.787   4.486 -0.0331  0.2999 -0.1113
 2798SOL     OW11194   2.629   2.304   4.451 -0.1251  0.5490 -0.0173
 2798SOL    HW211195   2.589   2.371   4.506 -0.8382  0.1276 -0.0091
 2798SOL    HW311196   2.706   2.275   4.501 -0.6705  0.2868  0.6966
 2798SOL    MW411197   2.634   2.309   4.465 -0.2912  0.4588  0.0780
 2799SOL     OW11198   2.864   2.272   4.608  0.0401  0.2072 -0.2120
 2799SOL    HW211199   2.931   2.337   4.589  0.1612  0.1408 -0.0101
 2799SOL    HW311200   2.911   2.189   4.612  0.1986  0.3563  1.4772
 2799SOL    MW411201   2.879   2.270   4.606  0.0770  0.2181  0.0375
 2800SOL     OW11202   3.466   2.295   4.638  0.1542  0.8899  0.0182
 2800SOL    HW211203   3.493   2.374   4.592 -1.4494  0.8254 -1.0757
 2800SOL    HW311204   3.392   2.323   4.692 -0.3417  0.1657 -0.2820
 2800SOL    MW411205   3.460   2.309   4.639 -0.1228  0.7858 -0.1657
 2801SOL     OW11206   2.259   2.079   4.611 -0.2538 -0.2607 -0.1340
 2801SOL    HW211207   2.168   2.049   4.603 -0.1848 -0.4798 -0.1012
 2801SOL    HW311208   2.254   2.174   4.602 -0.5940 -0.1931  0.7151
 2801SOL    MW411209   2.246   2.087   4.609 -0.2896 -0.2807 -0.0177
 2802SOL     OW11210   3.119   3.235   4.508 -0.3796 -0.0862 -0.6042
 2802SOL    HW211211   3.025   3.249   4.520 -0.8015 -2.3695 -0.9260
 2802SOL    HW311212   3.133   3.246   4.414 -0.1568  1.0682 -0.4455
 2802SOL    MW411213   3.108   3.238   4.497 -0.4059 -0.2352 -0.6257
 2803SOL     OW11214   2.710   3.081   4.670 -0.1333 -0.1634 -0.2797
 2803SOL    HW211215   2.761   3.162   4.668 -0.3875  0.0027 -0.0458
 2803SOL    HW311216   2.619   3.110   4.660 -0.2912 -0.3598  0.5776
 2803SOL    MW411217   2.704   3.096   4.668 -0.1877 -0.1674 -0.1357
 2804SOL     OW11218   2.858   3.314   4.538  0.4233  0.0715  0.1779
 2804SOL    HW211219   2.789   3.295   4.473  0.1811 -0.1474  0.4993
 2804SOL    HW311220   2.853   3.409   4.550 -0.0463  0.0119  0.4513
 2804SOL    MW411221   2.848   3.324   4.531  0.3294  0.0347  0.2564
 2805SOL     OW11222   2.429   3.178   4.626 -0.0937  0.1428 -0.4451
 2805SOL    HW211223   2.417   3.240   4.554  1.2036 -1.5659 -2.1643
 2805SOL    HW311224   2.389   3.222   4.701 -0.2252  2.5727 -1.8672
 2805SOL    MW411225   2.422   3.192   4.626  0.0601  0.2380 -0.8596
 2806SOL     OW11226   2.871   3.606   4.550 -0.1834 -0.0516  0.1472
 2806SOL    HW211227   2.785   3.638   4.578  0.0054 -0.0357  0.7074
 2806SOL    HW311228   2.931   3.630   4.621  0.7251  2.0500 -1.2843
 2806SOL    MW411229   2.868   3.613   4.563 -0.0386  0.2278  0.0322
 2807SOL     OW11230   3.027   3.693   4.753  0.0460  0.2102 -0.2192
 2807SOL    HW211231   3.120   3.694   4.729  0.4134 -0.5112  1.0871
 2807SOL    HW311232   3.025   3.643   4.835 -1.4914  0.2720 -0.2139
 2807SOL    MW411233   3.039   3.686   4.761 -0.1084  0.1232 -0.0461
 2808SOL     OW11234   4.062   3.543   4.666 -0.0015  0.0180  0.0026
 2808SOL    HW211235   4.086   3.508   4.752  0.6457  1.6093  0.4853
 2808SOL    HW311236   4.140   3.531   4.613  0.1745  0.5743  0.1290
 2808SOL    MW411237   4.075   3.537   4.671  0.1071  0.3013  0.0830
 2809SOL     OW11238   2.339   3.644   4.677  0.3964  0.3147 -0.1950
 2809SOL    HW211239   2.303   3.718   4.629  0.2843 -0.6729 -1.6677
 2809SOL    HW311240   2.304   3.566   4.633  0.0365 -0.6283  1.6809
 2809SOL    MW411241   2.330   3.643   4.665  0.3341  0.0600 -0.1418
 2810SOL     OW11242   2.890   4.254   4.691  0.2574  0.0555 -0.0439
 2810SOL    HW211243   2.886   4.274   4.785 -0.3084  0.9598 -0.2541
 2810SOL    HW311244   2.908   4.160   4.688 -0.8479 -0.2173  0.9909
 2810SOL    MW411245   2.892   4.244   4.703  0.0369  0.1388  0.0649
 2811SOL     OW11246   3.049   0.020   4.539  0.2253 -0.1497  0.3060
 2811SOL    HW211247   3.127   0.050   4.585  0.8068 -0.2048 -0.6166
 2811SOL    HW311248   2.979   0.074   4.573  0.7756  0.3099  0.7222
 2811SOL    MW411249   3.050   0.031   4.549  0.3746 -0.0963  0.2392
 2812SOL     OW11250   2.863   0.558   4.486  0.2110  0.0617 -0.0126
 2812SOL    HW211251   2.941   0.568   4.540 -0.1796  0.6164  0.4564
 2812SOL    HW311252   2.895   0.565   4.396  1.0036 -1.8196  0.0962
 2812SOL    MW411253   2.877   0.560   4.481  0.2640 -0.1133  0.0636
 2813SOL     OW11254   2.303   0.588   4.522  0.6239  0.3657  0.2052
 2813SOL    HW211255   2.346   0.528   4.584 -0.4588 -0.4798  0.1542
 2813SOL    HW311256   2.211   0.560   4.522  0.5449  0.5827 -1.5158
 2813SOL    MW411257   2.296   0.576   4.530  0.4706  0.2828 -0.0286
 2814SOL     OW11258   1.568   1.337   4.596  0.3332  0.4727 -0.5399
 2814SOL    HW211259   1.656   1.371   4.611 -0.0978  0.5518  1.8929
 2814SOL    HW311260   1.575   1.243   4.612 -0.0516  0.4938 -0.2396
 2814SOL    MW411261   1.580   1.329   4.600  0.2256  0.4859 -0.1793
 2815SOL     OW11262   2.430   0.368   4.668 -0.3137 -0.3117  0.3971
 2815SOL    HW211263   2.383   0.300   4.620 -0.2866 -0.1528  0.1483
 2815SOL    HW311264   2.515   0.328   4.689  0.7527  0.5595 -2.0542
 2815SOL    MW411265   2.435   0.354   4.665 -0.1694 -0.1758  0.0409
 2816SOL     OW11266   3.378   0.865   4.769  0.4042  0.3769 -0.1276
 2816SOL    HW211267   3.419   0.936   4.720 -1.0457  0.9152 -0.5771
 2816SOL    HW311268   3.436   0.790   4.755  0.8242  0.9272 -1.4056
 2816SOL    MW411269   3.391   0.864   4.761  0.2683  0.5206 -0.3555
 2817SOL     OW11270   3.415   1.317   4.547  0.1838 -0.6909  0.0306
 2817SOL    HW211271   3.328   1.348   4.572  1.3129  1.1507  1.8222
 2817SOL    HW311272   3.422   1.230   4.587 -0.6545 -0.6712  0.2429
 2817SOL    MW411273   3.404   1.310   4.556  0.2221 -0.4453  0.2950
 2818SOL     OW11274   2.871   1.617   4.538  0.2654 -0.1921  0.2761
 2818SOL    HW211275   2.796   1.675   4.548  0.5077 -0.1490  2.1718
 2818SOL    HW311276   2.833   1.529   4.530 -0.0221 -0.0343 -0.0972
 2818SOL    MW411277   2.856   1.613   4.538  0.2594 -0.1656  0.4769
 2819SOL     OW11278   3.929   1.001   4.892 -0.6248 -0.0185  0.3955
 2819SOL    HW211279   4.006   1.057   4.896 -0.8222  0.1525  1.8147
 2819SOL    HW311280   3.860   1.052   4.933 -0.8536 -1.2192  1.5155
 2819SOL    MW411281   3.930   1.015   4.898 -0.6810 -0.1543  0.7305
 2820SOL     OW11282   3.360   1.830   4.592 -0.5346 -0.2802  0.0705
 2820SOL    HW211283   3.277   1.784   4.577 -0.8229  0.4073 -0.4775
 2820SOL    HW311284   3.338   1.923   4.579  0.9392 -0.3048 -2.9129
 2820SOL    MW411285   3.346   1.836   4.588 -0.3782 -0.1927 -0.3954
 2821SOL     OW11286   3.038   2.024   4.576 -0.2433 -0.2804 -0.2100
 2821SOL    HW211287   2.997   2.025   4.489  0.1836  1.0349 -0.4056
 2821SOL    HW311288   3.124   2.064   4.562  0.5032 -1.5876  0.5040
 2821SOL    MW411289   3.044   2.029   4.563 -0.0885 -0.2794 -0.1416
 2822SOL     OW11290   3.296   2.107   4.536 -0.6495  0.3487 -0.2245
 2822SOL    HW211291   3.356   2.164   4.585 -0.1668 -0.6970  0.4284
 2822SOL    HW311292   3.329   2.108   4.447 -1.0346  1.6096 -0.3624
 2822SOL    MW411293   3.308   2.115   4.531 -0.6366  0.3771 -0.1566
 2823SOL     OW11294   3.579   1.711   4.496 -0.4474  0.1679  0.1551
 2823SOL    HW211295   3.496   1.745   4.527 -1.3376 -1.1292 -0.7749
 2823SOL    HW311296   3.599   1.638   4.554  1.5109  2.2175  2.2052
 2823SOL    MW411297   3.571   1.706   4.508 -0.3064  0.2672  0.3028
 2824SOL     OW11298   3.070   2.773   4.648 -0.4839 -0.4214 -0.4922
 2824SOL    HW211299   2.979   2.797   4.628 -0.9989 -0.4213  1.7573
 2824SOL    HW311300   3.122   2.848   4.618 -1.5742  1.1830  1.5661
 2824SOL    MW411301   3.065   2.786   4.641 -0.6957 -0.2097  0.0762
 2825SOL     OW11302   3.610   2.994   4.722  0.2849  0.1995  0.2011
 2825SOL    HW211303   3.574   3.080   4.699 -0.7028 -0.3219 -0.2296
 2825SOL    HW311304   3.543   2.932   4.693  1.6642 -0.8097 -0.8644
 2825SOL    MW411305   3.596   2.997   4.715  0.3366 -0.0024  0.0037
 2826SOL     OW11306   3.230   2.716   4.881 -0.2016  0.4623 -0.0703
 2826SOL    HW211307   3.162   2.723   4.814 -0.0231 -0.2764 -0.3370
 2826SOL    HW311308   3.191   2.661   4.949 -0.6098  1.7222  0.7283
 2826SOL    MW411309   3.216   2.709   4.881 -0.2319  0.5311 -0.0001
 2827SOL     OW11310   3.274   2.465   4.768 -0.0956 -0.3862  0.2969
 2827SOL    HW211311   3.205   2.469   4.701  2.5974  0.6887 -2.5640
 2827SOL    HW311312   3.285   2.555   4.797  0.0384 -0.5569  0.7744
 2827SOL    MW411313   3.267   2.477   4.763  0.2774 -0.2669 -0.0175
 2828SOL     OW11314   3.817   3.377   4.705 -0.0347  0.0165  0.5346
 2828SOL    HW211315   3.859   3.303   4.659 -1.0680  0.1126 -0.6122
 2828SOL    HW311316   3.883   3.446   4.705  1.0539 -0.9902  1.8826
 2828SOL    MW411317   3.831   3.376   4.699 -0.0274 -0.1036  0.5612
 2829SOL     OW11318   3.429   2.781   4.680  0.2835 -0.2235  0.6866
 2829SOL    HW211319   3.379   2.848   4.634  0.2371 -0.6728  0.0825
 2829SOL    HW311320   3.388   2.777   4.767  0.7583  1.0446  0.9826
 2829SOL    MW411321   3.417   2.789   4.686  0.3400 -0.1154  0.6459
 2830SOL     OW11322   4.049   2.927   4.803 -0.0935 -0.4511 -0.2562
 2830SOL    HW211323   4.069   3.021   4.795  0.7110 -0.7311 -1.7402
 2830SOL    HW311324   4.088   2.888   4.725 -0.4214 -2.0326  0.3629
 2830SOL    MW411325   4.057   2.934   4.792 -0.0306 -0.6967 -0.3703
 2831SOL     OW11326   3.941   3.179   4.561  0.3761 -0.2082  0.0103
 2831SOL    HW211327   3.973   3.183   4.471 -0.1485  0.6037 -0.1481
 2831SOL    HW311328   3.898   3.094   4.568  0.8704 -0.4911 -0.3485
 2831SOL    MW411329   3.940   3.168   4.550  0.3721 -0.1384 -0.0579
 2832SOL     OW11330   3.444   4.040   4.516 -0.1998  0.1458 -0.0633
 2832SOL    HW211331   3.348   4.034   4.522 -0.0916 -1.0569  0.5522
 2832SOL    HW311332   3.476   3.965   4.566  1.0714  0.4901 -0.3464
 2832SOL    MW411333   3.435   4.029   4.523 -0.0178  0.0326 -0.0195
 2833SOL     OW11334   3.176   3.941   4.502  0.2037 -0.0481 -0.3346
 2833SOL    HW211335   3.104   3.957   4.563 -1.1187 -0.9064 -1.6513
 2833SOL    HW311336   3.212   3.857   4.530 -0.9896 -0.8887 -1.2837
 2833SOL    MW411337   3.171   3.932   4.514 -0.1282 -0.2722 -0.6335
 2834SOL     OW11338   3.092   0.751   4.861  0.0184  0.1197  0.6940
 2834SOL    HW211339   3.016   0.801   4.832 -0.9539 -0.9262  1.4380
 2834SOL    HW311340   3.166   0.812   4.850 -0.7597  0.7852 -0.9941
 2834SOL    MW411341   3.092   0.766   4.856 -0.2125  0.0695  0.5694
 2835SOL     OW11342   3.282   4.390   4.516  0.6063 -0.2644  0.0513
 2835SOL    HW211343   3.186   4.389   4.524  0.6286  0.0486  0.3754
 2835SOL    HW311344   3.310   4.462   4.573  1.0214 -0.2325 -0.1919
 2835SOL    MW411345   3.273   4.399   4.525  0.6640 -0.2189  0.0620
 2836SOL     OW11346   4.063   3.938   4.514  0.8820  0.1475 -0.0002
 2836SOL    HW211347   4.132   3.916   4.576  1.5485 -0.1713 -0.8590
 2836SOL    HW311348   3.988   3.886   4.542  0.9553  0.5619  0.9859
 2836SOL    MW411349   4.062   3.928   4.526  0.9796  0.1601  0.0166
 2837SOL     OW11350   3.552   4.282   4.553 -0.1729 -0.5982 -0.4130
 2837SOL    HW211351   3.517   4.193   4.545 -0.0370 -0.5604 -1.5176
 2837SOL    HW311352   3.476   4.339   4.539 -0.1815 -0.5333 -0.1130
 2837SOL    MW411353   3.537   4.278   4.550 -0.1561 -0.5846 -0.5192
 2838SOL     OW11354   3.212   0.828   4.548 -0.5026  0.0477  0.5964
 2838SOL    HW211355   3.258   0.855   4.628  0.7038 -0.0751 -0.0355
 2838SOL    HW311356   3.185   0.738   4.565  0.9035 -0.4291  0.3979
 2838SOL    MW411357   3.215   0.820   4.561 -0.1579 -0.0314  0.4869
 2839SOL     OW11358   2.962   1.235   4.757  0.0139  0.0519  0.7370
 2839SOL    HW211359   2.962   1.144   4.727 -0.0760  0.5136 -0.7334
 2839SOL    HW311360   2.894   1.239   4.824  1.4643 -1.4267  2.3348
 2839SOL    MW411361   2.953   1.224   4.762  0.1934 -0.0822  0.7538
 2840SOL     OW11362   4.081   1.390   4.687 -0.2725 -0.6402  0.0236
 2840SOL    HW211363   4.156   1.351   4.642 -0.3481 -0.4732 -0.2477
 2840SOL    HW311364   4.009   1.381   4.625 -0.1163  0.6305 -0.3544
 2840SOL    MW411365   4.082   1.383   4.673 -0.2618 -0.4505 -0.0621
 2841SOL     OW11366   3.766   1.118   4.706 -0.0220 -0.4962 -0.5411
 2841SOL    HW211367   3.835   1.072   4.753 -0.7117  0.2691  1.2710
 2841SOL    HW311368   3.812   1.171   4.640  1.0368 -0.7618 -0.0180
 2841SOL    MW411369   3.781   1.119   4.703  0.0267 -0.4303 -0.2330
 2842SOL     OW11370   4.163   0.947   4.536  0.0694  0.2429  0.1479
 2842SOL    HW211371   4.244   0.900   4.517 -0.0518  0.5673 -1.2221
 2842SOL    HW311372   4.111   0.939   4.456 -1.3387 -0.1300  1.0834
 2842SOL    MW411373   4.167   0.940   4.523 -0.1324  0.2365  0.0905
 2843SOL     OW11374   4.343   0.563   4.503 -0.3411  0.3205  0.3755
 2843SOL    HW211375   4.287   0.547   4.579 -0.5472  1.3217  0.4385
 2843SOL    HW311376   4.289   0.537   4.428 -0.2341 -0.4125  0.5522
 2843SOL    MW411377   4.328   0.558   4.503 -0.3542  0.3559  0.4071
 2844SOL     OW11378   3.626   1.469   4.643 -0.3336 -0.2674  0.4496
 2844SOL    HW211379   3.622   1.443   4.736 -0.8505 -1.0677  0.2118
 2844SOL    HW311380   3.541   1.443   4.608  0.5750 -1.7393 -0.6962
 2844SOL    MW411381   3.614   1.462   4.651 -0.2819 -0.5672  0.2671
 2845SOL     OW11382   4.080   1.842   4.531 -0.3101 -0.1926 -0.5507
 2845SOL    HW211383   3.986   1.857   4.525 -0.2867  0.1702 -0.0521
 2845SOL    HW311384   4.089   1.771   4.594 -0.2903 -0.7624 -1.1881
 2845SOL    MW411385   4.069   1.835   4.538 -0.3044 -0.2199 -0.5691
 2846SOL     OW11386   3.538   2.554   4.541 -0.0804  0.2276 -0.5328
 2846SOL    HW211387   3.623   2.553   4.584 -0.2467  1.6298 -0.1749
 2846SOL    HW311388   3.482   2.608   4.597 -1.4723 -1.4181 -0.2801
 2846SOL    MW411389   3.542   2.561   4.554 -0.2860  0.1955 -0.4522
 2847SOL     OW11390   4.139   2.330   4.663 -0.4784 -0.1861  0.8233
 2847SOL    HW211391   4.231   2.349   4.646 -0.6015  1.1145  1.4833
 2847SOL    HW311392   4.092   2.401   4.618 -1.0969 -0.3214  1.2575
 2847SOL    MW411393   4.145   2.342   4.655 -0.5763 -0.0324  0.9677
 2848SOL     OW11394   0.174   1.616   4.531 -0.4754  0.3790 -0.0045
 2848SOL    HW211395   0.096   1.630   4.477 -1.0938  0.0091  0.7861
 2848SOL    HW311396   0.203   1.704   4.554 -0.8987  0.5105  0.0363
 2848SOL    MW411397   0.167   1.629   4.527 -0.6128  0.3476  0.1052
 2849SOL     OW11398   3.758   2.508   4.693  0.1747  0.4655 -0.3130
 2849SOL    HW211399   3.810   2.441   4.737  0.1135 -0.8957 -2.2121
 2849SOL    HW311400   3.749   2.578   4.757  0.2546 -1.3377  1.7094
 2849SOL    MW411401   3.764   2.509   4.707  0.1771  0.0480 -0.2967
 2850SOL     OW11402   3.795   2.767   4.828 -0.2891  0.3225 -0.5440
 2850SOL    HW211403   3.742   2.841   4.854  0.5845  0.5612  0.5918
 2850SOL    HW311404   3.885   2.795   4.844  0.0222 -1.1685  0.4223
 2850SOL    MW411405   3.800   2.780   4.833 -0.1328  0.1572 -0.2666
 2851SOL     OW11406   3.541   3.263   4.601  0.4825 -0.4158 -0.2316
 2851SOL    HW211407   3.623   3.308   4.617  1.2040 -2.1131  0.9783
 2851SOL    HW311408   3.548   3.232   4.510  1.5837 -1.3916  0.1858
 2851SOL    MW411409   3.553   3.265   4.591  0.7230 -0.7685 -0.0169
 2852SOL     OW11410   4.381   3.139   4.674 -0.1406 -0.5612 -0.5690
 2852SOL    HW211411   4.380   3.072   4.742 -0.4188  0.4093  0.4120
 2852SOL    HW311412   4.453   3.115   4.617  0.0783 -1.4088  0.0526
 2852SOL    MW411413   4.390   3.127   4.675 -0.1484 -0.5450 -0.3576
 2853SOL     OW11414   3.323   3.417   4.534 -0.7595  0.1138 -0.0663
 2853SOL    HW211415   3.254   3.352   4.520 -1.2389  0.2106  1.7774
 2853SOL    HW311416   3.397   3.367   4.566 -0.6780  0.2865  0.0155
 2853SOL    MW411417   3.323   3.402   4.536 -0.8120  0.1493  0.1878
 2854SOL     OW11418   3.550   3.825   4.667 -0.0663  0.0604 -0.2759
 2854SOL    HW211419   3.644   3.830   4.654 -0.0361  0.4018  0.0556
 2854SOL    HW311420   3.538   3.834   4.762 -0.4356  0.1213 -0.3253
 2854SOL    MW411421   3.561   3.827   4.678 -0.1110  0.1134 -0.2386
 2855SOL     OW11422   3.271   3.703   4.592  0.1231  0.1853 -0.3311
 2855SOL    HW211423   3.366   3.702   4.600  0.0670 -1.9437  0.3493
 2855SOL    HW311424   3.248   3.611   4.574 -1.8777  0.4807  0.6467
 2855SOL    MW411425   3.281   3.690   4.591 -0.1483 -0.0566 -0.1124
 2856SOL     OW11426   3.878   3.735   4.577 -0.6519 -0.3594 -0.3895
 2856SOL    HW211427   3.849   3.702   4.492 -1.3165 -0.1721 -0.2401
 2856SOL    HW311428   3.942   3.671   4.608  0.0559 -0.1139 -1.3041
 2856SOL    MW411429   3.883   3.722   4.570 -0.6462 -0.3023 -0.4905
 2857SOL     OW11430   0.132   3.075   4.515  0.4730 -0.0257  0.1826
 2857SOL    HW211431   0.199   3.143   4.521 -0.9125  1.2318  1.9637
 2857SOL    HW311432   0.077   3.102   4.441  0.6089  0.1584  0.1487
 2857SOL    MW411433   0.133   3.088   4.506  0.3081  0.1645  0.4131
 2858SOL     OW11434   4.311   3.878   4.624 -0.4577  0.5408  0.2916
 2858SOL    HW211435   4.316   3.844   4.714  2.1451 -0.7378 -0.2797
 2858SOL    HW311436   4.297   3.800   4.570 -0.5620  1.1225 -0.5214
 2858SOL    MW411437   4.310   3.863   4.629 -0.1281  0.4489  0.1089
 2859SOL     OW11438   3.816   4.342   4.533  0.5580 -0.2156 -0.1943
 2859SOL    HW211439   3.809   4.344   4.437  0.4531  1.4817 -0.1793
 2859SOL    HW311440   3.726   4.330   4.563  0.6212 -0.9790 -0.3187
 2859SOL    MW411441   3.804   4.341   4.524  0.5525 -0.0924 -0.2087
 2860SOL     OW11442   3.108   0.086   4.281  0.4645 -0.1150  0.3940
 2860SOL    HW211443   3.198   0.055   4.270  0.9224  1.2259  0.3361
 2860SOL    HW311444   3.089   0.071   4.374  1.0180  0.3211  0.5802
 2860SOL    MW411445   3.117   0.080   4.292  0.5979  0.1194  0.4109
 2861SOL     OW11446   3.506   1.057   4.600  0.9949  0.3996  0.1709
 2861SOL    HW211447   3.592   1.081   4.634  1.3607  0.8599 -1.0789
 2861SOL    HW311448   3.522   1.025   4.512 -0.1312  0.5614 -0.1067
 2861SOL    MW411449   3.519   1.056   4.593  0.8946  0.4817 -0.0306
 2862SOL     OW11450   3.811   0.621   4.601  0.0921  0.4798 -0.0995
 2862SOL    HW211451   3.848   0.533   4.599  1.2541  0.9861 -1.1772
 2862SOL    HW311452   3.880   0.674   4.641  0.2772  1.3174 -1.5329
 2862SOL    MW411453   3.825   0.616   4.606  0.2698  0.6571 -0.4308
 2863SOL     OW11454   0.077   0.366   4.537 -0.1548  0.1309  0.0625
 2863SOL    HW211455   0.017   0.410   4.477 -0.5288 -0.2625  0.1543
 2863SOL    HW311456   0.149   0.429   4.549 -0.2441  0.3442 -0.5295
 2863SOL    MW411457   0.079   0.380   4.531 -0.2159  0.1071 -0.0035
 2864SOL     OW11458   0.319   0.529   4.531  0.0469  0.8048 -0.3266
 2864SOL    HW211459   0.410   0.502   4.544 -0.6447 -1.0391  0.9372
 2864SOL    HW311460   0.299   0.503   4.441  0.6025  0.6698 -0.4167
 2864SOL    MW411461   0.328   0.522   4.521  0.0289  0.5437 -0.1718
 2865SOL     OW11462   4.151   0.505   4.709  0.0190  0.3395 -0.1899
 2865SOL    HW211463   4.115   0.588   4.741 -0.8839  0.7782 -2.2383
 2865SOL    HW311464   4.073   0.453   4.687  0.5910 -0.9131  0.7179
 2865SOL    MW411465   4.136   0.509   4.710 -0.0247  0.2321 -0.3404
 2866SOL     OW11466   3.841   1.333   4.540 -0.0561 -0.2250 -0.0303
 2866SOL    HW211467   3.847   1.341   4.445  0.4839 -0.3685 -0.0126
 2866SOL    HW311468   3.765   1.386   4.564 -0.4949 -0.5928 -0.5913
 2866SOL    MW411469   3.832   1.341   4.531 -0.0428 -0.2925 -0.1020
 2867SOL     OW11470   4.471   1.180   4.777 -0.2107 -0.3546  0.2764
 2867SOL    HW211471   4.520   1.097   4.770  1.0027  0.2608  1.3182
 2867SOL    HW311472   4.539   1.248   4.774 -1.2666  0.6649 -1.4562
 2867SOL    MW411473   4.487   1.178   4.775 -0.1899 -0.1389  0.1853
 2868SOL     OW11474   0.428   1.502   4.433  0.0171  0.3676 -0.0892
 2868SOL    HW211475   0.344   1.498   4.479 -0.4783 -0.8982 -1.0898
 2868SOL    HW311476   0.421   1.578   4.376  0.0683  1.0570  0.8164
 2868SOL    MW411477   0.416   1.512   4.432 -0.0415  0.2916 -0.1017
 2869SOL     OW11478   4.160   1.658   4.727  0.7548  0.0998 -0.1119
 2869SOL    HW211479   4.132   1.569   4.750 -0.1269  0.1365 -1.0322
 2869SOL    HW311480   4.225   1.680   4.794  0.0625 -0.7618  0.8599
 2869SOL    MW411481   4.165   1.649   4.739  0.5471 -0.0091 -0.1051
 2870SOL     OW11482   3.246   2.971   4.557  0.1828  0.5293  0.1467
 2870SOL    HW211483   3.266   2.941   4.468  2.9956  1.8815  0.2727
 2870SOL    HW311484   3.207   3.057   4.546  0.5804  0.7201  0.1996
 2870SOL    MW411485   3.244   2.978   4.544  0.6064  0.7329  0.1703
 2871SOL     OW11486   4.246   2.057   4.240  0.4182  0.4133 -0.2875
 2871SOL    HW211487   4.172   2.019   4.193  0.5309  0.3596 -0.4193
 2871SOL    HW311488   4.207   2.090   4.322  0.2002  0.6202 -0.4727
 2871SOL    MW411489   4.231   2.056   4.245  0.4043  0.4335 -0.3294
 2872SOL     OW11490   4.136   2.776   4.589  0.0898 -0.0777  0.3900
 2872SOL    HW211491   4.135   2.834   4.513 -0.5537  0.2775  0.6650
 2872SOL    HW311492   4.222   2.734   4.586  0.0531 -0.1019 -0.5594
 2872SOL    MW411493   4.147   2.778   4.578  0.0001 -0.0340  0.3010
 2873SOL     OW11494   3.792   1.898   4.522 -0.3495  0.0453 -0.1647
 2873SOL    HW211495   3.710   1.850   4.527 -0.8231  0.7504 -1.0714
 2873SOL    HW311496   3.773   1.984   4.561 -0.0949  0.2792 -0.5520
 2873SOL    MW411497   3.779   1.903   4.528 -0.3784  0.1692 -0.3354
 2874SOL     OW11498   3.897   2.268   4.778 -0.0743 -0.2884 -0.2272
 2874SOL    HW211499   3.893   2.226   4.864 -1.7644 -1.7942 -1.0179
 2874SOL    HW311500   3.990   2.273   4.758  0.3209 -0.1923  1.5582
 2874SOL    MW411501   3.908   2.263   4.787 -0.2452 -0.4744 -0.0960
 2875SOL     OW11502   3.817   2.927   4.563 -0.2258  0.1665 -0.0396
 2875SOL    HW211503   3.737   2.948   4.611 -1.3667 -0.0525 -1.7788
 2875SOL    HW311504   3.856   2.855   4.612 -2.0640 -0.9555 -0.1471
 2875SOL    MW411505   3.811   2.920   4.576 -0.6188 -0.0104 -0.2833
 2876SOL     OW11506   4.015   2.533   4.535  0.0507  0.5206 -0.3985
 2876SOL    HW211507   4.055   2.617   4.558  0.5648  0.5859 -1.5274
 2876SOL    HW311508   3.938   2.527   4.592  1.1201  0.8289  1.1186
 2876SOL    MW411509   4.010   2.543   4.546  0.2596  0.5699 -0.3473
 2877SOL     OW11510   4.137   3.224   4.756 -0.6071 -0.7639  0.3929
 2877SOL    HW211511   4.069   3.228   4.689 -0.6898 -1.5924  0.4184
 2877SOL    HW311512   4.217   3.201   4.708 -0.7603 -1.8278  0.6344
 2877SOL    MW411513   4.139   3.221   4.741 -0.6382 -1.0136  0.4281
 2878SOL     OW11514   0.337   3.648   4.486 -0.3375  0.0289  0.2574
 2878SOL    HW211515   0.283   3.614   4.415 -0.3288  0.1223  0.2061
 2878SOL    HW311516   0.296   3.615   4.566 -0.6012  0.2873  0.2286
 2878SOL    MW411517   0.324   3.639   4.487 -0.3711  0.0753  0.2468
 2879SOL     OW11518   4.110   0.240   4.428  0.3268  0.0632  0.5524
 2879SOL    HW211519   4.148   0.309   4.373  2.0490 -0.6176  0.8442
 2879SOL    HW311520   4.068   0.181   4.365 -0.0216  0.7010  0.1854
 2879SOL    MW411521   4.110   0.241   4.412  0.5080  0.0575  0.5425
 2880SOL     OW11522   3.901   4.617   4.637  0.1464  0.2364  0.3550
 2880SOL    HW211523   3.872   4.533   4.601 -0.1868  1.0375 -1.3108
 2880SOL    HW311524   3.993   4.623   4.611  0.2170  0.3134  0.6244
 2880SOL    MW411525   3.909   4.606   4.629  0.1118  0.3522  0.1707
 2881SOL     OW11526   4.299   3.609   4.524  0.5366  0.3084  0.5927
 2881SOL    HW211527   4.284   3.613   4.429  0.8815  1.6713  0.5901
 2881SOL    HW311528   4.368   3.543   4.534 -0.6227 -1.0110  0.0362
 2881SOL    MW411529   4.306   3.601   4.513  0.4292  0.3142  0.5190
 2882SOL     OW11530   3.541   0.677   4.639  0.1030  0.0201  0.5972
 2882SOL    HW211531   3.631   0.646   4.635 -0.0998 -0.7099  1.3121
 2882SOL    HW311532   3.530   0.732   4.562  0.8042 -0.8609 -0.1419
 2882SOL    MW411533   3.551   0.680   4.628  0.1688 -0.1925  0.5940
 2883SOL     OW11534   4.253   4.428   4.191  0.2591 -0.8377  0.0539
 2883SOL    HW211535   4.329   4.381   4.158  0.8348 -0.2295  0.4961
 2883SOL    HW311536   4.252   4.411   4.285  0.5177  0.0847  0.2308
 2883SOL    MW411537   4.263   4.420   4.199  0.3692 -0.6358  0.1356
   4.49070   4.66690  10.00000
