Methanol, one molecule
    6
    1MEOH    CM    1   1.500   1.500   1.500
    1MEOH    OM    2   1.643   1.500   1.500
    1MEOH    HO    3   1.674   1.592   1.500
    1MEOH   HM1    4   1.464   1.500   1.603
    1MEOH   HM2    5   1.464   1.411   1.449
    1MEOH   HM3    6   1.464   1.589   1.449
   3.00000   3.00000   3.00000
