Methanol, one molecule
    6
    1MEOH    CM    1   3.000   2.330   5.250
    1MEOH    OM    2   3.143   2.330   5.250
    1MEOH    HO    3   3.174   2.422   5.250
    1MEOH   HM1    4   2.964   2.330   5.353
    1MEOH   HM2    5   2.964   2.241   5.199
    1MEOH   HM3    6   2.964   2.419   5.199
   4.49070   4.66690  10.00000
