MMP methyl phosphate monoanion
10
    1MMP      P    1   2.245   2.333   5.000
    1MMP    OME    2   2.337   2.425   5.092
    1MMP    OOH    3   2.336   2.242   4.909
    1MMP     O1    4   2.154   2.424   4.909
    1MMP     O2    5   2.154   2.242   5.091
    1MMP     CM    6   2.420   2.508   5.175
    1MMP    HM1    7   2.472   2.414   5.154
    1MMP    HM2    8   2.399   2.560   5.081
    1MMP    HM3    9   2.326   2.487   5.227
    1MMP     HO   10   2.392   2.186   4.853
   4.49070   4.66690  10.00000