; ============================================================
; MMP - methyl phosphate monoanion
;
; Structure:
;
;              O-
;              |
;        CH3-O-P-OH
;              |
;              O-
;
; Net charge = -1
;
; Atom types are from amber_na.ff
; ============================================================

[ moleculetype ]
; name    nrexcl
MMP       3


[ atoms ]
; nr  type       resnr  resid  atom  cgnr  charge
   1  P          1      MMP    P     1     1.23480
   2  OS_case    1      MMP    OME   2    -0.49890
   3  OH         1      MMP    OOH   3    -0.65410
   4  O2_case    1      MMP    O1    4    -0.88945
   5  O2_case    1      MMP    O2    5    -0.88945
   6  CI         1      MMP    CM    6     0.05580
   7  H1         1      MMP    HM1   6     0.06790
   8  H1         1      MMP    HM2   6     0.06790
   9  H1         1      MMP    HM3   6     0.06790
  10  HO         1      MMP    HO    3     0.43760


[ bonds ]
; ai  aj  funct  b0        kb

; phosphate P-O bonds
   1   4    1     0.14800   439320.0
   1   5    1     0.14800   439320.0
   1   2    1     0.16100   192464.0
   1   3    1     0.16100   192464.0

; methyl ester O-C bond
   2   6    1     0.14100   267776.0

; methyl C-H bonds
   6   7    1     0.10900   284512.0
   6   8    1     0.10900   284512.0
   6   9    1     0.10900   284512.0

; phosphate O-H bond
   3  10    1     0.09600   462750.4


[ angles ]
; ai  aj  ak  funct  angle      force constant

; phosphate angles
   4   1   5    1     119.90     1171.520
   4   1   2    1     108.23      836.800
   4   1   3    1     108.23      376.560
   5   1   2    1     108.23      836.800
   5   1   3    1     108.23      376.560
   2   1   3    1     102.60      376.560

; P-O-C angle
   1   2   6    1     120.50      836.800

; methyl C-H angles
   2   6   7    1     109.50      418.400
   2   6   8    1     109.50      418.400
   2   6   9    1     109.50      418.400

; H-C-H angles
   7   6   8    1     109.50      418.400
   7   6   9    1     109.50      418.400
   8   6   9    1     109.50      418.400

; P-O-H angle
   1   3  10    1     108.50      376.560