Corrected MMP - 10 atom geometry
   10
    1MMP      P    1   2.245   2.333   5.250
    1MMP    OME    2   2.337   2.425   5.342
    1MMP    OOH    3   2.337   2.241   5.158
    1MMP     O1    4   2.153   2.425   5.158
    1MMP     O2    5   2.153   2.241   5.342
    1MMP     CM    6   2.480   2.416   5.333
    1MMP    HM1    7   2.523   2.516   5.330
    1MMP    HM2    8   2.507   2.362   5.242
    1MMP    HM3    9   2.518   2.362   5.420
    1MMP     HO   10   2.430   2.259   5.176
   4.49070   4.66690  10.00000
