Corrected MMP - 10 atom geometry
   10
    1MMP      P    1   2.245   3.163   5.250
    1MMP    OME    2   2.337   3.255   5.342
    1MMP    OOH    3   2.337   3.071   5.158
    1MMP     O1    4   2.153   3.255   5.158
    1MMP     O2    5   2.153   3.071   5.342
    1MMP     CM    6   2.480   3.246   5.333
    1MMP    HM1    7   2.523   3.346   5.330
    1MMP    HM2    8   2.507   3.192   5.242
    1MMP    HM3    9   2.518   3.192   5.420
    1MMP     HO   10   2.430   3.089   5.176
   4.49070   4.66690  10.00000
