MMP + MEOH + Na + annealed ice
11537
    1MEOH    CM    1   3.000   2.330   5.250
    1MEOH    OM    2   3.143   2.330   5.250
    1MEOH    HO    3   3.174   2.422   5.250
    1MEOH   HM1    4   2.964   2.330   5.353
    1MEOH   HM2    5   2.964   2.241   5.199
    1MEOH   HM3    6   2.964   2.419   5.199
    2MMP      P    7   2.245   3.163   5.250
    2MMP    OME    8   2.337   3.255   5.342
    2MMP    OOH    9   2.337   3.071   5.158
    2MMP     O1   10   2.153   3.255   5.158
    2MMP     O2   11   2.153   3.071   5.342
    2MMP     CM   12   2.480   3.246   5.333
    2MMP    HM1   13   2.523   3.346   5.330
    2MMP    HM2   14   2.507   3.192   5.242
    2MMP    HM3   15   2.518   3.192   5.420
    2MMP     HO   16   2.430   3.089   5.176
    3NA      NA   17   0.815   0.166   0.000  0.1078 -0.1488  0.0854
    4SOL     OW   18   0.355   0.147   0.481 -0.3533  0.5549  0.1168
    4SOL    HW2   19   0.448   0.161   0.466 -0.4519  1.0385 -0.0794
    4SOL    HW3   20   0.312   0.218   0.433 -0.7583  1.2133  1.4219
    4SOL    MW4   21   0.361   0.158   0.472 -0.4197  0.7056  0.2631
    5SOL     OW   22   3.984   0.231   0.489 -0.4680  0.7841  0.3279
    5SOL    HW2   23   4.062   0.181   0.469  0.0900  0.8026  2.3455
    5SOL    HW3   24   3.990   0.309   0.433 -0.5747 -0.6056 -1.6893
    5SOL    MW4   25   3.995   0.235   0.479 -0.4084  0.6032  0.3279
    6SOL     OW   26   3.790   0.311   0.132 -0.2022  0.3180 -0.1264
    6SOL    HW2   27   3.714   0.293   0.075  0.2047  0.6022 -0.7677
    6SOL    HW3   28   3.773   0.260   0.211 -1.6474  1.3014  0.2174
    6SOL    MW4   29   3.777   0.302   0.135 -0.3390  0.4852 -0.1656
    7SOL     OW   30   4.462   1.673   0.514  0.1458  0.1617  0.1316
    7SOL    HW2   31   4.486   1.657   0.606  1.4603 -0.0905 -0.2488
    7SOL    HW3   32   4.537   1.641   0.464 -0.0376  1.4523 -0.9760
    7SOL    MW4   33   4.475   1.667   0.520  0.2952  0.2986 -0.0647
    8SOL     OW   34   1.324   0.826   0.288  0.3265  0.0159  0.6110
    8SOL    HW2   35   1.230   0.835   0.306  0.4769  4.5223 -0.2874
    8SOL    HW3   36   1.328   0.792   0.199 -0.3782 -1.8444  1.2460
    8SOL    MW4   37   1.312   0.822   0.279  0.2533  0.3650  0.5762
    9SOL     OW   38   0.166   0.552   0.486 -0.2958 -0.5396 -0.3457
    9SOL    HW2   39   0.179   0.549   0.581 -1.5140  0.5422 -0.1334
    9SOL    HW3   40   0.146   0.461   0.462 -0.2377 -0.7739  0.4699
    9SOL    MW4   41   0.165   0.539   0.496 -0.4489 -0.4278 -0.2100
   10SOL     OW   42   0.416   0.913   0.476 -0.0789  0.1892  0.1898
   10SOL    HW2   43   0.438   0.886   0.565  2.3103 -0.8901 -0.6840
   10SOL    HW3   44   0.397   0.831   0.430 -0.2476  0.6515 -0.5740
   10SOL    MW4   45   0.416   0.898   0.482  0.2140  0.1078 -0.0263
   11SOL     OW   46   0.782   0.858   0.443  0.0158  0.0672 -0.2253
   11SOL    HW2   47   0.823   0.895   0.521  2.1334 -0.9913 -0.7939
   11SOL    HW3   48   0.748   0.935   0.396 -1.6374  0.6678  1.9023
   11SOL    MW4   49   0.783   0.873   0.447  0.0770  0.0068 -0.0196
   12SOL     OW   50   0.624   1.042   0.308 -0.0621 -0.4296 -0.2471
   12SOL    HW2   51   0.594   1.056   0.219 -0.1522 -0.5518 -0.2359
   12SOL    HW3   52   0.545   1.018   0.357 -0.5208  2.2460  0.4373
   12SOL    MW4   53   0.610   1.041   0.303 -0.1345 -0.0929 -0.1553
   13SOL     OW   54   4.284   1.808   0.172 -0.3486  0.1010  0.0801
   13SOL    HW2   55   4.260   1.753   0.247  3.7166 -0.9954  0.6861
   13SOL    HW3   56   4.248   1.895   0.194 -1.9454 -0.9527  1.7667
   13SOL    MW4   57   4.276   1.812   0.185 -0.0229 -0.1827  0.3825
   14SOL     OW   58   4.213   1.628   0.400 -0.3203 -0.2452  0.4516
   14SOL    HW2   59   4.153   1.695   0.432 -0.3524 -0.2881  0.4810
   14SOL    HW3   60   4.295   1.643   0.448  0.9285  2.2100 -2.3001
   14SOL    MW4   61   4.216   1.639   0.411 -0.1602  0.0731  0.0924
   15SOL     OW   62   0.051   1.930   0.377  0.3944 -0.3169  0.0672
   15SOL    HW2   63   0.014   1.862   0.433 -1.5006 -0.1087 -0.9146
   15SOL    HW3   64   0.037   1.899   0.288  0.6548  0.7807 -0.3656
   15SOL    MW4   65   0.045   1.917   0.373  0.1788 -0.1446 -0.1194
   16SOL     OW   66   0.157   2.495   0.334 -0.2610 -0.2938  0.1522
   16SOL    HW2   67   0.106   2.477   0.255 -0.1299 -1.8024  0.4036
   16SOL    HW3   68   0.248   2.491   0.306 -0.2197  3.0331 -0.4349
   16SOL    MW4   69   0.162   2.492   0.320 -0.2383 -0.0539  0.1079
   17SOL     OW   70   4.310   2.814   0.476  0.1831  0.0910 -0.2595
   17SOL    HW2   71   4.402   2.787   0.475  0.2088  0.0206  1.6723
   17SOL    HW3   72   4.314   2.910   0.479  0.1807  0.1204 -1.2253
   17SOL    MW4   73   4.323   2.823   0.477  0.1864  0.0856 -0.1321
   18SOL     OW   74   4.284   3.411   0.438 -0.5223  0.3337 -0.0511
   18SOL    HW2   75   4.223   3.343   0.468  2.2158 -0.6129  3.6829
   18SOL    HW3   76   4.356   3.362   0.399  0.1676  1.2544  0.0655
   18SOL    MW4   77   4.285   3.395   0.437 -0.0701  0.3302  0.4569
   19SOL     OW   78   0.328   3.212   0.323  0.2484  0.3791  0.0419
   19SOL    HW2   79   0.357   3.204   0.414  0.7159 -1.4800 -0.2624
   19SOL    HW3   80   0.404   3.247   0.276  0.0396  1.2420  0.3327
   19SOL    MW4   81   0.342   3.216   0.329  0.2825  0.2475  0.0401
   20SOL     OW   82   0.844   3.411   0.387  0.1031 -0.1096 -0.1701
   20SOL    HW2   83   0.892   3.457   0.317 -1.8485  1.2420 -0.6468
   20SOL    HW3   84   0.818   3.480   0.448 -1.1627 -0.8342  0.1312
   20SOL    MW4   85   0.847   3.426   0.386 -0.3214 -0.0267 -0.1932
   21SOL     OW   86   0.972   3.808   0.287 -0.1691  0.0611 -0.1099
   21SOL    HW2   87   1.030   3.884   0.296  0.8910 -0.6920 -0.4793
   21SOL    HW3   88   0.890   3.835   0.328  1.0198  0.5353  2.0081
   21SOL    MW4   89   0.969   3.821   0.294  0.1276  0.0246  0.1208
   22SOL     OW   90   3.815   3.350   0.431  0.3172 -0.3290 -0.0982
   22SOL    HW2   91   3.817   3.439   0.468  0.4551 -0.6926  0.7921
   22SOL    HW3   92   3.905   3.334   0.403  0.1696  0.0239 -0.7726
   22SOL    MW4   93   3.827   3.360   0.432  0.3157 -0.3304 -0.0697
   23SOL     OW   94   4.479   3.850   0.448  0.2723  0.0172  0.0216
   23SOL    HW2   95   4.403   3.795   0.467  1.3389 -1.6634 -0.4601
   23SOL    HW3   96   4.446   3.939   0.455 -2.0242 -0.6730 -1.1741
   23SOL    MW4   97   4.465   3.854   0.451  0.1097 -0.2956 -0.1997
   24SOL     OW   98   0.203   4.545   0.507 -0.4369 -0.0121 -0.4127
   24SOL    HW2   99   0.251   4.623   0.480 -1.3963  0.3965 -0.9607
   24SOL    HW3  100   0.199   4.490   0.429  2.2347 -1.6807  0.5568
   24SOL    MW4  101   0.208   4.548   0.493 -0.2110 -0.1788 -0.3571
   25SOL     OW  102   0.108   4.393   0.282  0.1306  0.6002  0.2053
   25SOL    HW2  103   0.020   4.370   0.312  0.2316  1.5447  1.2841
   25SOL    HW3  104   0.100   4.402   0.187 -0.3973 -1.6233  0.0142
   25SOL    MW4  105   0.095   4.392   0.273  0.0743  0.4315  0.3224
   26SOL     OW  106   4.335   4.323   0.397 -0.2847  0.2332  0.7229
   26SOL    HW2  107   4.310   4.244   0.445 -0.3033  0.0473  0.4083
   26SOL    HW3  108   4.254   4.374   0.391 -0.3946  0.0304  0.4621
   26SOL    MW4  109   4.321   4.319   0.403 -0.3014  0.1822  0.6470
   27SOL     OW  110   0.432   3.669   0.499 -0.4176  0.3080  0.1683
   27SOL    HW2  111   0.526   3.654   0.501 -0.2485  1.3011  0.1922
   27SOL    HW3  112   0.423   3.763   0.483 -1.4072  0.1411 -0.3412
   27SOL    MW4  113   0.443   3.679   0.497 -0.5258  0.4170  0.1042
   28SOL     OW  114   0.737   0.008   0.357 -0.0123  0.2281  0.3051
   28SOL    HW2  115   0.830   0.006   0.378 -0.0889  1.0858  0.7243
   28SOL    HW3  116   0.727  -0.055   0.285  1.1764  1.3911 -0.8981
   28SOL    MW4  117   0.748  -0.001   0.350  0.1344  0.4954  0.2017
   29SOL     OW  118   0.106   0.263   0.398 -0.6686  0.0182  0.0478
   29SOL    HW2  119   0.070   0.199   0.459  0.0846  0.2853  0.7928
   29SOL    HW3  120   0.042   0.270   0.328 -1.8165  0.1221  1.0960
   29SOL    MW4  121   0.093   0.256   0.397 -0.7207  0.0671  0.2844
   30SOL     OW  122   4.378   0.566   0.482  0.6950  0.2890 -0.6463
   30SOL    HW2  123   4.473   0.565   0.479  0.7271  0.1992  0.3140
   30SOL    HW3  124   4.354   0.656   0.463  1.0135  0.5674  0.2816
   30SOL    MW4  125   4.387   0.577   0.479  0.7415  0.3138 -0.3971
   31SOL     OW  126   1.049   4.435   0.524 -0.0264  0.2336 -0.0264
   31SOL    HW2  127   0.966   4.387   0.526  0.2276 -0.2124 -0.2378
   31SOL    HW3  128   1.096   4.405   0.601  0.9255 -1.2725 -1.1734
   31SOL    MW4  129   1.044   4.425   0.534  0.1327 -0.0238 -0.2056
   32SOL     OW  130   1.062   0.803   0.358 -0.1820  0.0277 -0.1746
   32SOL    HW2  131   0.968   0.813   0.374 -0.3766 -1.6312 -0.1743
   32SOL    HW3  132   1.087   0.727   0.411  1.5212  1.4857  1.1737
   32SOL    MW4  133   1.053   0.794   0.367  0.0170  0.0012  0.0033
   33SOL     OW  134   0.583   0.469   0.258 -0.3746 -0.3499 -0.0779
   33SOL    HW2  135   0.666   0.496   0.219 -0.4495  1.3318  0.9051
   33SOL    HW3  136   0.606   0.395   0.314  0.7685  1.1591  1.5037
   33SOL    MW4  137   0.597   0.463   0.260 -0.2337  0.0710  0.2605
   34SOL     OW  138   0.180   1.083   0.496 -0.1380 -0.2106 -0.4291
   34SOL    HW2  139   0.101   1.029   0.496 -0.4243  0.1120  2.4248
   34SOL    HW3  140   0.252   1.021   0.485 -0.6237 -0.8870  0.1862
   34SOL    MW4  141   0.179   1.068   0.495 -0.2399 -0.2573  0.0286
   35SOL     OW  142   0.459   1.626   0.480  0.1975 -0.0727  0.0382
   35SOL    HW2  143   0.526   1.557   0.476  0.9713  0.7194 -0.8908
   35SOL    HW3  144   0.389   1.595   0.422  1.1336  0.5089 -1.4573
   35SOL    MW4  145   0.458   1.613   0.472  0.4231  0.1086 -0.2817
   36SOL     OW  146   0.205   1.625   0.337  0.0945 -0.0716  0.0569
   36SOL    HW2  147   0.162   1.539   0.338 -0.5121  0.2372  0.7756
   36SOL    HW3  148   0.173   1.667   0.257  0.8045 -0.7145 -0.5754
   36SOL    MW4  149   0.195   1.619   0.326  0.1082 -0.1155  0.0684
   37SOL     OW  150   0.418   2.496   0.222  0.5403  0.0001 -0.0176
   37SOL    HW2  151   0.496   2.449   0.253 -0.3662 -0.5528  1.4645
   37SOL    HW3  152   0.440   2.588   0.233  0.9175 -0.1603  0.5909
   37SOL    MW4  153   0.431   2.502   0.228  0.4705 -0.0939  0.2582
   38SOL     OW  154   0.072   2.732   0.489 -0.0647  0.3067 -0.2084
   38SOL    HW2  155   0.086   2.654   0.435 -0.8087  0.4318 -0.5870
   38SOL    HW3  156   0.135   2.796   0.456  0.0503  0.1063 -0.3778
   38SOL    MW4  157   0.083   2.730   0.477 -0.1477  0.2968 -0.2807
   39SOL     OW  158   3.868   2.281   0.268  0.3476 -0.3132 -0.0388
   39SOL    HW2  159   3.893   2.371   0.289  0.3296 -0.6036  1.2618
   39SOL    HW3  160   3.882   2.274   0.173 -0.4393  1.2913 -0.2938
   39SOL    MW4  161   3.873   2.292   0.258  0.2413 -0.1397  0.0991
   40SOL     OW  162   0.589   2.540   0.526  0.1235 -0.4789 -0.1612
   40SOL    HW2  163   0.563   2.462   0.477  1.5125 -0.2035 -1.3824
   40SOL    HW3  164   0.679   2.557   0.497  0.7234  0.1087  1.9809
   40SOL    MW4  165   0.598   2.532   0.516  0.3859 -0.3655 -0.0398
   41SOL     OW  166   0.499   2.739   0.330  0.2097  0.3828  0.1432
   41SOL    HW2  167   0.528   2.680   0.400 -0.1806 -0.0290 -0.0384
   41SOL    HW3  168   0.555   2.816   0.339 -0.5097  0.7620  1.5611
   41SOL    MW4  169   0.510   2.741   0.341  0.0633  0.3786  0.3064
   42SOL     OW  170   4.342   3.085   0.482 -0.4067 -0.2827 -0.4473
   42SOL    HW2  171   4.259   3.131   0.491 -0.2912  0.0800 -1.1989
   42SOL    HW3  172   4.404   3.137   0.533 -0.5490 -0.3272 -0.2269
   42SOL    MW4  173   4.340   3.098   0.490 -0.4101 -0.2408 -0.5174
   43SOL     OW  174   0.288   2.917   0.374  0.1888 -0.1511  0.0677
   43SOL    HW2  175   0.305   3.000   0.329  0.0901  0.8888  1.8948
   43SOL    HW3  176   0.366   2.864   0.357  0.2601  0.3111 -1.0943
   43SOL    MW4  177   0.301   2.921   0.366  0.1851  0.0470  0.1554
   44SOL     OW  178   0.802   4.452   0.208  0.1611  0.0377  0.5196
   44SOL    HW2  179   0.784   4.429   0.117 -2.1200  3.2279  0.1029
   44SOL    HW3  180   0.895   4.434   0.219  0.9019  1.3530 -3.0069
   44SOL    MW4  181   0.812   4.446   0.197 -0.0421  0.6323 -0.0006
   45SOL     OW  182   0.105   3.350   0.414 -0.1264 -0.2764 -0.0864
   45SOL    HW2  183   0.125   3.443   0.423 -0.2157 -0.2284 -0.3987
   45SOL    HW3  184   0.175   3.315   0.360 -0.4224 -0.2686 -0.4835
   45SOL    MW4  185   0.117   3.357   0.408 -0.1772 -0.2692 -0.1800
   46SOL     OW  186   0.722   3.623   0.529  0.2525 -0.2322 -0.1772
   46SOL    HW2  187   0.714   3.712   0.494  0.1058 -0.9938 -2.1830
   46SOL    HW3  188   0.704   3.632   0.622 -1.6124  1.5779 -0.6678
   46SOL    MW4  189   0.718   3.636   0.537 -0.0129 -0.0942 -0.5065
   47SOL     OW  190   1.156   3.639   0.447  0.0758 -0.0273 -0.1244
   47SOL    HW2  191   1.071   3.672   0.417 -0.6683 -0.6565  1.2297
   47SOL    HW3  192   1.173   3.563   0.391 -0.6575 -0.3936  0.1405
   47SOL    MW4  193   1.147   3.633   0.436 -0.1192 -0.1585  0.0892
   48SOL     OW  194   0.450   3.956   0.441  0.6383 -0.2899 -0.2512
   48SOL    HW2  195   0.436   3.994   0.527 -0.1776 -1.1853  0.0158
   48SOL    HW3  196   0.367   3.968   0.395  0.5089 -1.3223 -0.3142
   48SOL    MW4  197   0.437   3.962   0.446  0.5136 -0.5443 -0.2243
   49SOL     OW  198   0.987   3.567   0.198 -0.1637 -0.1747  0.2865
   49SOL    HW2  199   0.954   3.557   0.108  0.5393  0.1202 -0.0117
   49SOL    HW3  200   0.980   3.661   0.215  0.3754 -0.1304  0.2725
   49SOL    MW4  201   0.982   3.578   0.188  0.0002 -0.1299  0.2453
   50SOL     OW  202   0.746   4.395   0.504 -0.1566 -0.0669  0.3851
   50SOL    HW2  203   0.712   4.462   0.445 -2.1880 -1.2550  0.1431
   50SOL    HW3  204   0.725   4.427   0.591  1.3900  0.9188  0.4130
   50SOL    MW4  205   0.739   4.408   0.508 -0.2205 -0.0935  0.3569
   51SOL     OW  206   0.613   0.237   0.450  0.0135 -0.0994 -0.2620
   51SOL    HW2  207   0.665   0.165   0.415 -1.1452 -1.3319  0.5340
   51SOL    HW3  208   0.662   0.266   0.527  0.5446  0.0623 -0.6518
   51SOL    MW4  209   0.627   0.232   0.456 -0.0693 -0.2407 -0.2083
   52SOL     OW  210   0.681   0.602   0.514  0.0995  0.4153 -0.2135
   52SOL    HW2  211   0.717   0.688   0.495 -0.3805  0.1829 -2.3409
   52SOL    HW3  212   0.628   0.580   0.437 -0.5982 -1.3459  0.7214
   52SOL    MW4  213   0.679   0.610   0.501 -0.0560  0.1523 -0.3709
   53SOL     OW  214   0.363   0.665   0.328  0.1098 -0.3401  0.4549
   53SOL    HW2  215   0.289   0.635   0.381 -0.5116 -0.1568 -0.3006
   53SOL    HW3  216   0.420   0.588   0.321 -0.2887 -0.6478  0.5656
   53SOL    MW4  217   0.361   0.651   0.334 -0.0248 -0.3565  0.3699
   54SOL     OW  218   1.378   0.555   0.329  0.1165 -0.0860 -0.2393
   54SOL    HW2  219   1.365   0.650   0.329 -0.3261 -0.1459  0.1658
   54SOL    HW3  220   1.469   0.543   0.358  0.2904  0.2283 -0.6547
   54SOL    MW4  221   1.389   0.566   0.333  0.0809 -0.0525 -0.2407
   55SOL     OW  222   1.799   0.693   0.263 -0.3249 -0.6279 -0.4230
   55SOL    HW2  223   1.782   0.787   0.271  0.7085 -0.4411 -0.3724
   55SOL    HW3  224   1.735   0.653   0.323 -0.6890  0.0448 -0.3480
   55SOL    MW4  225   1.788   0.700   0.272 -0.2366 -0.5146 -0.4064
   56SOL     OW  226   1.487   0.972   0.458 -0.2412  0.4542  0.0734
   56SOL    HW2  227   1.427   0.935   0.393 -0.6904 -1.0180  1.3044
   56SOL    HW3  228   1.445   0.955   0.542  1.8028 -0.4506  0.9594
   56SOL    MW4  229   1.474   0.965   0.460 -0.0308  0.1407  0.3527
   57SOL     OW  230   0.678   1.451   0.522  0.0171 -0.3331 -0.3642
   57SOL    HW2  231   0.694   1.362   0.489  1.2142  0.1812 -1.2208
   57SOL    HW3  232   0.766   1.488   0.532 -0.4855  0.8264 -0.2271
   57SOL    MW4  233   0.692   1.444   0.519  0.1087 -0.1123 -0.4592
   58SOL     OW  234   0.781   1.202   0.487 -0.1538 -0.1450  0.3445
   58SOL    HW2  235   0.745   1.160   0.409  1.5751 -1.2416  0.1180
   58SOL    HW3  236   0.869   1.230   0.461 -0.7582  2.4633  0.8925
   58SOL    MW4  237   0.788   1.200   0.473 -0.0054  0.0545  0.3869
   59SOL     OW  238   1.737   1.395   0.446  0.1336  0.0583  0.3851
   59SOL    HW2  239   1.776   1.482   0.440  0.9550 -0.3434 -0.2604
   59SOL    HW3  240   1.812   1.335   0.446 -0.4105 -0.6310  1.2248
   59SOL    MW4  241   1.752   1.398   0.445  0.1702 -0.0856  0.4107
   60SOL     OW  242   1.036   1.368   0.480 -0.1652 -0.0235 -0.1282
   60SOL    HW2  243   1.124   1.377   0.445  0.1650  0.2469  0.7645
   60SOL    HW3  244   1.005   1.459   0.489 -0.7553 -0.1288 -0.9711
   60SOL    MW4  245   1.043   1.381   0.476 -0.1997 -0.0017 -0.1217
   61SOL     OW  246   0.928   1.619   0.533  0.1991 -0.5149 -0.0771
   61SOL    HW2  247   1.016   1.654   0.518 -0.3353  0.7363 -0.3427
   61SOL    HW3  248   0.916   1.625   0.628 -0.1377  0.6671 -0.1812
   61SOL    MW4  249   0.938   1.625   0.544  0.0841 -0.1937 -0.1259
   62SOL     OW  250   0.315   1.900   0.430 -0.1099  0.5415  0.4357
   62SOL    HW2  251   0.223   1.905   0.406  0.4699  0.3124 -2.0239
   62SOL    HW3  252   0.331   1.806   0.443  0.6677  0.0894 -3.1865
   62SOL    MW4  253   0.305   1.888   0.428  0.0692  0.4518 -0.3667
   63SOL     OW  254   0.700   1.790   0.465  0.2925  0.0389  0.0013
   63SOL    HW2  255   0.769   1.728   0.486  0.0045 -0.2518  0.1090
   63SOL    HW3  256   0.620   1.737   0.465  0.1756  0.1995 -0.9688
   63SOL    MW4  257   0.698   1.774   0.468  0.2390  0.0217 -0.1125
   64SOL     OW  258   0.856   2.546   0.468 -0.1261  0.0453 -0.1245
   64SOL    HW2  259   0.863   2.460   0.428  1.7067 -0.6367  1.5808
   64SOL    HW3  260   0.893   2.535   0.555  1.5596  2.8950 -0.4071
   64SOL    MW4  261   0.862   2.533   0.474  0.3382  0.3314  0.0632
   65SOL     OW  262   0.565   2.041   0.464  0.2247  0.2842  0.1535
   65SOL    HW2  263   0.620   1.966   0.440 -0.9138 -0.6955  0.5537
   65SOL    HW3  264   0.477   2.015   0.439  0.1577  2.5845 -2.1983
   65SOL    MW4  265   0.561   2.028   0.457  0.0656  0.4585 -0.1040
   66SOL     OW  266   1.096   2.685   0.417  0.0623  0.3661  0.1230
   66SOL    HW2  267   1.023   2.624   0.410 -0.3225  0.8123  0.2485
   66SOL    HW3  268   1.058   2.771   0.399  0.7643  0.4781 -0.8444
   66SOL    MW4  269   1.081   2.688   0.414  0.1042  0.4399  0.0119
   67SOL     OW  270   0.608   2.314   0.346  0.1592 -0.0660 -0.3504
   67SOL    HW2  271   0.694   2.301   0.306  0.8071  0.8795  0.7029
   67SOL    HW3  272   0.581   2.225   0.372 -0.0722 -0.6229 -2.4307
   67SOL    MW4  273   0.616   2.300   0.344  0.2141 -0.0148 -0.4859
   68SOL     OW  274   0.695   2.937   0.454 -0.6457  0.1505  0.0774
   68SOL    HW2  275   0.731   2.915   0.540 -0.7332 -0.1913  0.0279
   68SOL    HW3  276   0.674   3.030   0.460 -0.2816  0.2172  0.2938
   68SOL    MW4  277   0.697   2.946   0.466 -0.6092  0.1142  0.0994
   69SOL     OW  278   1.014   3.236   0.479 -0.3506 -0.4097 -0.1597
   69SOL    HW2  279   0.989   3.217   0.569  0.2342  1.3357  0.4041
   69SOL    HW3  280   0.948   3.298   0.448  0.7873  0.8581 -0.1078
   69SOL    MW4  281   1.002   3.242   0.486 -0.1234 -0.0122 -0.0785
   70SOL     OW  282   1.395   3.779   0.506  0.2599 -0.1764 -0.1352
   70SOL    HW2  283   1.465   3.717   0.486  0.0714  0.8278 -4.2735
   70SOL    HW3  284   1.316   3.737   0.472 -0.4581  0.7374  0.3697
   70SOL    MW4  285   1.394   3.765   0.499  0.1403  0.0768 -0.6146
   71SOL     OW  286   1.079   4.063   0.381  0.1299  0.1570  0.0755
   71SOL    HW2  287   1.097   4.138   0.323 -0.0353 -0.9589 -1.4507
   71SOL    HW3  288   1.000   4.088   0.428  0.2808  1.1089 -0.1641
   71SOL    MW4  289   1.071   4.077   0.379  0.1280  0.1354 -0.1574
   72SOL     OW  290   0.711   3.890   0.411 -0.5420 -0.0992 -0.0709
   72SOL    HW2  291   0.767   3.958   0.448 -0.6341  0.0795 -0.2605
   72SOL    HW3  292   0.622   3.924   0.420 -0.4322  0.8895 -2.3870
   72SOL    MW4  293   0.706   3.903   0.417 -0.5397  0.0548 -0.4015
   73SOL     OW  294   1.088   4.422   0.261  0.0386 -0.0278 -0.5634
   73SOL    HW2  295   1.169   4.448   0.217 -0.3762 -0.0505 -1.3665
   73SOL    HW3  296   1.108   4.426   0.354  0.1805  2.6226 -0.6588
   73SOL    MW4  297   1.101   4.426   0.267  0.0026  0.3190 -0.6819
   74SOL     OW  298   1.145   0.505   0.461 -0.0049  0.1458 -0.2030
   74SOL    HW2  299   1.139   0.409   0.468  1.6011  0.0970  0.9730
   74SOL    HW3  300   1.229   0.520   0.417  0.8824  1.0236  1.7049
   74SOL    MW4  301   1.156   0.494   0.456  0.3241  0.2552  0.2039
   75SOL     OW  302   0.982   0.037   0.485 -0.1567 -0.1572  0.0861
   75SOL    HW2  303   1.020  -0.051   0.490 -1.0297 -0.5647 -0.4142
   75SOL    HW3  304   0.947   0.053   0.572  0.2949 -0.1748  0.2714
   75SOL    MW4  305   0.983   0.028   0.497 -0.2123 -0.2133  0.0445
   76SOL     OW  306   1.449   0.272   0.283 -0.3320  0.0472 -0.3139
   76SOL    HW2  307   1.544   0.282   0.293 -0.4609 -0.0211  1.0624
   76SOL    HW3  308   1.418   0.362   0.268 -0.1572  0.2216  0.3161
   76SOL    MW4  309   1.458   0.285   0.283 -0.3259  0.0612 -0.0491
   77SOL     OW  310   1.635   0.537   0.443 -0.2040  0.1679 -0.4175
   77SOL    HW2  311   1.678   0.456   0.416  0.5275  0.1138  0.8590
   77SOL    HW3  312   1.623   0.528   0.537  1.7807  2.3769  0.1144
   77SOL    MW4  313   1.639   0.525   0.452  0.1544  0.4522 -0.1789
   78SOL     OW  314   1.178   0.226   0.482  0.2675 -0.1663 -0.1467
   78SOL    HW2  315   1.106   0.163   0.478  1.3000 -1.3069 -0.9585
   78SOL    HW3  316   1.238   0.199   0.413  0.2013  2.3886 -1.2814
   78SOL    MW4  317   1.177   0.214   0.473  0.3949  0.0203 -0.4035
   79SOL     OW  318   1.969   0.469   0.244 -0.8297 -0.0968  0.5534
   79SOL    HW2  319   2.014   0.437   0.165  0.5459 -0.0084  1.2794
   79SOL    HW3  320   1.920   0.546   0.214 -0.7518 -0.3809 -0.3253
   79SOL    MW4  321   1.969   0.475   0.229 -0.6379 -0.1226  0.5333
   80SOL     OW  322   2.214   0.802   0.477 -0.2812  0.2832  0.3623
   80SOL    HW2  323   2.178   0.713   0.471  0.9632 -0.1974 -0.0878
   80SOL    HW3  324   2.298   0.797   0.432 -0.2379  1.7186  0.2594
   80SOL    MW4  325   2.220   0.789   0.470 -0.1111  0.4091  0.2894
   81SOL     OW  326   1.761   0.950   0.439 -0.5401  0.3823 -0.0093
   81SOL    HW2  327   1.784   0.904   0.520  1.5305  1.0910 -0.1846
   81SOL    HW3  328   1.665   0.949   0.438 -0.5734 -0.7881  1.7843
   81SOL    MW4  329   1.751   0.944   0.450 -0.2713  0.3213  0.2042
   82SOL     OW  330   1.483   1.269   0.461 -0.2693  0.2970  0.3516
   82SOL    HW2  331   1.474   1.173   0.464 -1.4436  0.4161  0.8311
   82SOL    HW3  332   1.570   1.283   0.425  0.6570 -0.9701  2.0307
   82SOL    MW4  333   1.493   1.258   0.457 -0.3020  0.1454  0.6364
   83SOL     OW  334   1.304   1.462   0.361 -0.3476 -0.1616 -0.6767
   83SOL    HW2  335   1.374   1.411   0.401  0.4207  1.1751 -0.3072
   83SOL    HW3  336   1.303   1.433   0.270 -1.0954 -2.1017 -0.0879
   83SOL    MW4  337   1.313   1.451   0.354 -0.3449 -0.2413 -0.5503
   84SOL     OW  338   1.200   1.694   0.486  0.5200 -0.3134 -0.0720
   84SOL    HW2  339   1.248   1.659   0.561 -1.2079 -1.3404  0.5849
   84SOL    HW3  340   1.221   1.634   0.414  0.2357 -0.7771  0.2223
   84SOL    MW4  341   1.209   1.681   0.486  0.2544 -0.5101  0.0535
   85SOL     OW  342   1.151   2.178   0.286  0.3038  0.1629  0.4997
   85SOL    HW2  343   1.225   2.233   0.312  0.1832  0.4318  0.2727
   85SOL    HW3  344   1.174   2.090   0.317  0.2674  0.4375  1.3047
   85SOL    MW4  345   1.164   2.173   0.293  0.2831  0.2344  0.5760
   86SOL     OW  346   1.340   2.548   0.466 -0.0583 -0.0127  0.6144
   86SOL    HW2  347   1.258   2.596   0.452  0.1092  0.5140  1.3993
   86SOL    HW3  348   1.408   2.615   0.461  0.3461 -0.4866 -0.2726
   86SOL    MW4  349   1.338   2.563   0.463  0.0170 -0.0055  0.6009
   87SOL     OW  350   1.950   2.149   0.450  0.2865 -0.0060  0.7033
   87SOL    HW2  351   1.960   2.114   0.538 -1.1508 -0.9707  0.4938
   87SOL    HW3  352   2.007   2.094   0.396 -1.2706 -1.4891  0.5229
   87SOL    MW4  353   1.959   2.137   0.455 -0.1086 -0.3290  0.6518
   88SOL     OW  354   1.517   2.044   0.487  0.6128  0.3053  0.4005
   88SOL    HW2  355   1.511   2.130   0.444  1.2812  0.0568 -0.2042
   88SOL    HW3  356   1.430   2.005   0.474  0.7024  0.3758 -0.4173
   88SOL    MW4  357   1.504   2.050   0.480  0.7129  0.2820  0.2128
   89SOL     OW  358   0.898   2.280   0.359  0.6812 -0.1333  0.1075
   89SOL    HW2  359   0.905   2.226   0.439 -0.9715 -1.8064 -0.8425
   89SOL    HW3  360   0.982   2.268   0.315  0.8615 -0.8005  0.6221
   89SOL    MW4  361   0.910   2.271   0.364  0.4869 -0.4423  0.0501
   90SOL     OW  362   1.007   2.961   0.405 -0.1845  0.3771 -0.0484
   90SOL    HW2  363   0.921   2.946   0.366 -0.5224  1.2311  0.3757
   90SOL    HW3  364   1.006   3.053   0.431  0.9698  0.4754 -0.3259
   90SOL    MW4  365   0.996   2.971   0.403 -0.0768  0.5026 -0.0290
   91SOL     OW  366   2.107   2.419   0.433 -0.0448  0.2759  0.2000
   91SOL    HW2  367   2.199   2.405   0.453 -0.3679  0.1118  1.6221
   91SOL    HW3  368   2.067   2.332   0.439 -0.4924  0.5103  0.6697
   91SOL    MW4  369   2.114   2.406   0.437 -0.1464  0.2854  0.4496
   92SOL     OW  370   1.720   4.107   0.510 -0.4601 -0.4100  0.1982
   92SOL    HW2  371   1.656   4.160   0.463 -0.2852 -0.9079 -0.6213
   92SOL    HW3  372   1.710   4.019   0.473 -0.8563 -0.9829  1.6447
   92SOL    MW4  373   1.710   4.102   0.499 -0.4891 -0.5517  0.2809
   93SOL     OW  374   1.350   4.038   0.434  0.2253  0.0785  0.0429
   93SOL    HW2  375   1.368   3.950   0.467  0.7003  0.3391  0.4969
   93SOL    HW3  376   1.257   4.037   0.412 -0.0266 -0.2210  1.0685
   93SOL    MW4  377   1.340   4.026   0.436  0.2548  0.0739  0.2381
   94SOL     OW  378   1.748   2.837   0.347  0.2411 -0.0397 -0.3421
   94SOL    HW2  379   1.661   2.804   0.368  0.7033 -1.1781 -0.1900
   94SOL    HW3  380   1.808   2.778   0.394  1.0567  1.4021  0.4651
   94SOL    MW4  381   1.745   2.825   0.356  0.4097  0.0005 -0.2155
   95SOL     OW  382   1.678   3.620   0.256  0.0648 -0.1382  0.5508
   95SOL    HW2  383   1.763   3.578   0.243  0.5880  1.3794 -1.1757
   95SOL    HW3  384   1.621   3.550   0.286  1.3403 -1.6958 -0.5693
   95SOL    MW4  385   1.682   3.605   0.258  0.3022 -0.1435  0.1753
   96SOL     OW  386   1.294   3.251   0.476 -0.5504 -0.4367 -0.3455
   96SOL    HW2  387   1.315   3.164   0.444 -0.3301 -0.7788  0.7209
   96SOL    HW3  388   1.199   3.258   0.468 -0.6638 -1.1152  0.4425
   96SOL    MW4  389   1.284   3.241   0.470 -0.5363 -0.5713 -0.1008
   97SOL     OW  390   1.583   3.392   0.440 -0.0750  0.3990 -0.1335
   97SOL    HW2  391   1.504   3.371   0.488 -1.3154  1.3096 -1.7422
   97SOL    HW3  392   1.616   3.307   0.409  1.2576 -0.3105  3.0244
   97SOL    MW4  393   1.577   3.378   0.442 -0.0627  0.4258  0.0708
   98SOL     OW  394   0.846   4.128   0.489  0.4894 -0.3979 -0.2577
   98SOL    HW2  395   0.831   4.096   0.578  1.6067 -1.0454 -0.3019
   98SOL    HW3  396   0.797   4.210   0.485  1.5939  0.3659  1.4246
   98SOL    MW4  397   0.837   4.135   0.500  0.7825 -0.3829 -0.0416
   99SOL     OW  398   2.274   0.001   0.605  0.3143 -0.1575  0.8558
   99SOL    HW2  399   2.242  -0.085   0.578 -0.5721  0.6995 -0.9144
   99SOL    HW3  400   2.370  -0.005   0.597  0.1813 -0.5529 -0.6469
   99SOL    MW4  401   2.283  -0.011   0.600  0.1800 -0.0968  0.4238
  100SOL     OW  402   1.840   4.515   0.398  0.3584  0.3176  0.6472
  100SOL    HW2  403   1.748   4.492   0.409  0.4371 -0.0616  0.5237
  100SOL    HW3  404   1.884   4.431   0.382  0.8868  0.3639  1.8061
  100SOL    MW4  405   1.834   4.501   0.398  0.4385  0.2737  0.7837
  101SOL     OW  406   1.888   0.112   0.465 -0.6030  0.0743  0.0891
  101SOL    HW2  407   1.860   0.119   0.556  0.0072  1.8827  0.1676
  101SOL    HW3  408   1.871   0.021   0.441 -1.4940 -0.2190  1.7648
  101SOL    MW4  409   1.882   0.101   0.474 -0.6400  0.2742  0.3205
  102SOL     OW  410   1.398   0.015   0.351  0.1378  0.6612  0.5810
  102SOL    HW2  411   1.423   0.102   0.322  0.6728  0.1821 -0.4118
  102SOL    HW3  412   1.468  -0.012   0.411 -0.3680  1.1698  1.4219
  102SOL    MW4  413   1.410   0.023   0.355  0.1416  0.6651  0.5610
  103SOL     OW  414   2.149   0.458   0.451 -0.1958  0.4907 -0.6327
  103SOL    HW2  415   2.135   0.365   0.474  1.9107  0.1355 -0.7255
  103SOL    HW3  416   2.109   0.467   0.365 -1.1931 -0.1093 -0.2492
  103SOL    MW4  417   2.142   0.447   0.443 -0.0496  0.3647 -0.5943
  104SOL     OW  418   2.382   1.531   0.435  0.0106  0.0775  0.0857
  104SOL    HW2  419   2.325   1.475   0.488  0.6251 -0.3930  0.2612
  104SOL    HW3  420   2.326   1.604   0.408 -0.5269 -0.1001  0.7016
  104SOL    MW4  421   2.367   1.533   0.439  0.0207 -0.0080  0.1901
  105SOL     OW  422   2.182   1.082   0.447  0.0654  0.6943 -0.2007
  105SOL    HW2  423   2.275   1.097   0.466 -0.0271  0.4622  0.4721
  105SOL    HW3  424   2.172   0.987   0.447 -0.1186  0.7114 -0.5547
  105SOL    MW4  425   2.193   1.071   0.450  0.0288  0.6660 -0.1586
  106SOL     OW  426   1.918   1.169   0.487  0.3379 -0.1257 -0.0982
  106SOL    HW2  427   1.865   1.091   0.472  1.0373 -0.7082  0.4553
  106SOL    HW3  428   2.005   1.146   0.455  0.3117  0.7583 -0.8157
  106SOL    MW4  429   1.923   1.156   0.481  0.4268 -0.0861 -0.1198
  107SOL     OW  430   2.598   1.349   0.364 -0.0853  0.2332 -0.3843
  107SOL    HW2  431   2.675   1.403   0.345 -0.2387  0.0971 -1.4068
  107SOL    HW3  432   2.530   1.412   0.389  0.2596  0.3754  0.2118
  107SOL    MW4  433   2.599   1.365   0.365 -0.0601  0.2340 -0.4406
  108SOL     OW  434   2.160   1.719   0.471  0.6721 -0.8495 -0.2461
  108SOL    HW2  435   2.164   1.811   0.446  0.7179 -0.8615 -0.2832
  108SOL    HW3  436   2.067   1.701   0.483  0.6406 -0.8747 -0.5229
  108SOL    MW4  437   2.149   1.729   0.470  0.6738 -0.8544 -0.2875
  109SOL     OW  438   1.773   1.930   0.412 -0.5412  0.2379 -0.0310
  109SOL    HW2  439   1.811   2.017   0.402  0.5319 -0.0962  0.9577
  109SOL    HW3  440   1.680   1.945   0.425 -0.3640  1.2382  0.1113
  109SOL    MW4  441   1.766   1.943   0.412 -0.3763  0.3259  0.1183
  110SOL     OW  442   2.373   2.406   0.534  0.0105  0.1244  0.1573
  110SOL    HW2  443   2.450   2.462   0.525 -0.1451  0.3696  0.3139
  110SOL    HW3  444   2.328   2.441   0.612 -0.7070  0.5312 -0.4287
  110SOL    MW4  445   2.377   2.418   0.543 -0.1044  0.2103  0.1006
  111SOL     OW  446   1.914   3.262   0.484 -0.1141  0.0221 -0.1501
  111SOL    HW2  447   1.976   3.194   0.460 -0.1201  0.2840 -0.9398
  111SOL    HW3  448   1.929   3.331   0.419 -0.6247  0.4492  0.1855
  111SOL    MW4  449   1.924   3.262   0.472 -0.1822  0.1128 -0.2100
  112SOL     OW  450   1.495   2.771   0.443  0.0211  0.0318  0.4870
  112SOL    HW2  451   1.444   2.851   0.433 -0.8805 -0.6255 -0.1769
  112SOL    HW3  452   1.535   2.779   0.530  0.0678  1.2669  0.3657
  112SOL    MW4  453   1.494   2.783   0.453 -0.0917  0.1078  0.3834
  113SOL     OW  454   1.318   2.993   0.370  0.0242 -0.3102 -0.2902
  113SOL    HW2  455   1.363   3.010   0.287  1.4217 -0.3324  0.4674
  113SOL    HW3  456   1.227   2.976   0.343  0.4174 -0.1596 -1.8031
  113SOL    MW4  457   1.312   2.993   0.355  0.2604 -0.2933 -0.3898
  114SOL     OW  458   1.245   1.977   0.479  0.4967 -0.2732  0.2608
  114SOL    HW2  459   1.191   1.987   0.557  1.8866 -1.8244  1.4467
  114SOL    HW3  460   1.245   1.883   0.462  1.4106 -0.0988 -0.7319
  114SOL    MW4  461   1.238   1.966   0.487  0.8006 -0.4548  0.2863
  115SOL     OW  462   3.601   2.339   0.388 -0.2176 -0.5191 -0.2727
  115SOL    HW2  463   3.662   2.301   0.325 -1.2577 -1.3467 -0.7834
  115SOL    HW3  464   3.595   2.274   0.458  0.5250  0.1642  0.4414
  115SOL    MW4  465   3.608   2.325   0.389 -0.2570 -0.5383 -0.2459
  116SOL     OW  466   1.923   2.661   0.473 -0.1545 -0.1462  0.2000
  116SOL    HW2  467   1.956   2.712   0.546  0.3413  0.9282 -0.7578
  116SOL    HW3  468   1.992   2.596   0.457 -0.8980 -1.3205  1.5749
  116SOL    MW4  469   1.937   2.659   0.480 -0.1872 -0.1595  0.2551
  117SOL     OW  470   1.513   2.305   0.402  0.2852  0.1440  0.0446
  117SOL    HW2  471   1.607   2.325   0.409  0.6616 -1.0124 -1.5022
  117SOL    HW3  472   1.470   2.388   0.420  1.6565  0.9885 -0.4728
  117SOL    MW4  473   1.520   2.319   0.406  0.5158  0.1028 -0.2278
  118SOL     OW  474   1.673   3.113   0.414 -0.1062 -0.2369  0.4227
  118SOL    HW2  475   1.699   3.025   0.387  0.6322  0.8109 -2.5180
  118SOL    HW3  476   1.753   3.153   0.449  0.8149  0.8038 -2.6614
  118SOL    MW4  477   1.687   3.107   0.415  0.1128  0.0389 -0.3722
  119SOL     OW  478   2.273   3.191   0.479  0.2700 -0.6559 -0.1400
  119SOL    HW2  479   2.206   3.124   0.467 -0.0006 -0.4613  0.2615
  119SOL    HW3  480   2.255   3.227   0.566 -0.6853  1.1549 -1.0651
  119SOL    MW4  481   2.262   3.187   0.489  0.1080 -0.3912 -0.2091
  120SOL     OW  482   1.788   3.836   0.420  0.0894 -0.0331  0.3007
  120SOL    HW2  483   1.756   3.789   0.343  0.9530 -0.3670  0.1375
  120SOL    HW3  484   1.883   3.821   0.420  0.0082 -0.6410  1.8321
  120SOL    MW4  485   1.796   3.828   0.410  0.1928 -0.1571  0.4812
  121SOL     OW  486   1.508   4.249   0.352  0.7246  0.2046 -0.4102
  121SOL    HW2  487   1.464   4.177   0.397  2.2278 -0.6274 -0.2339
  121SOL    HW3  488   1.442   4.284   0.292 -0.7497  0.1905  1.1431
  121SOL    MW4  489   1.494   4.244   0.350  0.7285  0.0930 -0.1820
  122SOL     OW  490   1.580   4.497   0.469 -0.6092 -0.1922  0.1260
  122SOL    HW2  491   1.588   4.475   0.562 -1.4893  0.0332  0.2516
  122SOL    HW3  492   1.559   4.413   0.427 -0.7369 -0.1923  0.1917
  122SOL    MW4  493   1.578   4.483   0.476 -0.7422 -0.1631  0.1512
  123SOL     OW  494   1.351   4.471   0.188  0.1528  0.0941 -1.0601
  123SOL    HW2  495   1.370   4.533   0.258 -2.5383  1.6067 -1.5946
  123SOL    HW3  496   1.369   4.520   0.107 -0.0082 -0.4953 -1.4565
  123SOL    MW4  497   1.356   4.486   0.186 -0.2235  0.2155 -1.1829
  124SOL     OW  498   2.419   0.193   0.351 -0.3141 -0.0890 -0.1136
  124SOL    HW2  499   2.453   0.136   0.420 -1.3231  0.6409  0.9817
  124SOL    HW3  500   2.324   0.190   0.361 -0.4348  0.6321 -0.9805
  124SOL    MW4  501   2.411   0.185   0.361 -0.4630  0.1024 -0.0835
  125SOL     OW  502   2.151   0.178   0.458  0.2046 -0.7320 -0.5849
  125SOL    HW2  503   2.175   0.107   0.518  0.4766 -0.1195  0.0246
  125SOL    HW3  504   2.056   0.169   0.448 -0.0450 -0.0078  0.9961
  125SOL    MW4  505   2.142   0.167   0.464  0.2074 -0.5556 -0.2959
  126SOL     OW  506   2.690   0.929   0.499 -0.2620 -0.3207 -0.3511
  126SOL    HW2  507   2.639   0.855   0.465 -0.1859 -0.6906  0.3204
  126SOL    HW3  508   2.772   0.927   0.451 -0.5932 -0.1667 -0.9247
  126SOL    MW4  509   2.694   0.919   0.488 -0.2956 -0.3492 -0.3382
  127SOL     OW  510   2.477   0.746   0.390  0.5809 -0.3707 -0.1879
  127SOL    HW2  511   2.468   0.652   0.409 -0.4840 -0.2157  0.0829
  127SOL    HW3  512   2.522   0.748   0.305  0.2058 -1.1331 -0.4145
  127SOL    MW4  513   2.482   0.734   0.381  0.3908 -0.4509 -0.1821
  128SOL     OW  514   2.905   0.897   0.131 -0.2072 -0.1073 -0.2767
  128SOL    HW2  515   2.915   0.933   0.219  3.8307  0.9219 -1.0698
  128SOL    HW3  516   2.982   0.842   0.118 -2.4970 -3.1021 -1.9239
  128SOL    MW4  517   2.916   0.894   0.141  0.0236 -0.3666 -0.5987
  129SOL     OW  518   2.946   1.000   0.397 -0.1766  0.8099  0.3596
  129SOL    HW2  519   3.017   0.981   0.458  0.0752  1.2009  0.1963
  129SOL    HW3  520   2.914   1.086   0.423 -1.0594  0.3354  0.8634
  129SOL    MW4  521   2.951   1.009   0.408 -0.2599  0.7989  0.4045
  130SOL     OW  522   2.960   1.247   0.503  0.3160  0.1206  0.4943
  130SOL    HW2  523   2.934   1.336   0.479  1.9561  1.0963  2.2758
  130SOL    HW3  524   2.926   1.235   0.592  1.3210 -0.5399  0.7951
  130SOL    MW4  525   2.952   1.257   0.511  0.6652  0.1622  0.7690
  131SOL     OW  526   2.732   1.664   0.429  0.8649 -0.1947 -0.5725
  131SOL    HW2  527   2.717   1.696   0.518 -0.1948 -0.5499 -0.6128
  131SOL    HW3  528   2.694   1.732   0.373 -0.9903 -1.2896 -0.6699
  131SOL    MW4  529   2.725   1.677   0.433  0.4804 -0.3860 -0.5907
  132SOL     OW  530   2.809   0.674   0.366 -0.1501 -0.2675  0.3408
  132SOL    HW2  531   2.892   0.714   0.341 -0.7838  0.0226 -1.3118
  132SOL    HW3  532   2.750   0.692   0.293 -1.0669 -2.3118  0.5365
  132SOL    MW4  533   2.812   0.681   0.353 -0.3548 -0.4990  0.1486
  133SOL     OW  534   2.212   2.003   0.336 -0.1396 -0.1298  0.5139
  133SOL    HW2  535   2.287   2.045   0.378 -0.4818  0.0502  0.9658
  133SOL    HW3  536   2.234   1.999   0.244  0.7383 -0.7593  0.7518
  133SOL    MW4  537   2.225   2.008   0.330 -0.0689 -0.1891  0.6049
  134SOL     OW  538   1.890   1.675   0.481 -0.2135 -0.0433  0.1259
  134SOL    HW2  539   1.850   1.675   0.568  0.5589 -0.9964  0.4833
  134SOL    HW3  540   1.870   1.762   0.446  0.1896  0.6648  1.5888
  134SOL    MW4  541   1.882   1.687   0.488 -0.0584 -0.0756  0.3661
  135SOL     OW  542   2.425   2.138   0.475 -0.1719  0.2290  0.3062
  135SOL    HW2  543   2.405   2.228   0.501  0.8884  0.6241 -0.2320
  135SOL    HW3  544   2.520   2.138   0.458 -0.2224 -0.9019 -0.0240
  135SOL    MW4  545   2.435   2.150   0.476 -0.0386  0.1321  0.1916
  136SOL     OW  546   2.706   2.165   0.441 -0.2626 -0.0736  0.0562
  136SOL    HW2  547   2.737   2.252   0.413 -0.5215  0.0940  0.2961
  136SOL    HW3  548   2.774   2.134   0.500  1.0757 -1.0823 -1.9299
  136SOL    MW4  549   2.719   2.173   0.445 -0.1204 -0.1845 -0.1742
  137SOL     OW  550   2.577   2.793   0.462  0.0272  0.3935 -0.0621
  137SOL    HW2  551   2.577   2.864   0.398  0.0073  0.4038 -0.0506
  137SOL    HW3  552   2.526   2.826   0.536  0.6309  0.6445  0.2491
  137SOL    MW4  553   2.571   2.807   0.463  0.1042  0.4282 -0.0195
  138SOL     OW  554   1.769   2.407   0.441 -0.1197 -0.1785  0.4262
  138SOL    HW2  555   1.837   2.341   0.428  0.0966  0.0199  0.5534
  138SOL    HW3  556   1.807   2.488   0.408 -0.2375 -0.0363  0.6377
  138SOL    MW4  557   1.783   2.409   0.435 -0.1067 -0.1335  0.4709
  139SOL     OW  558   2.050   3.014   0.468 -0.5376  0.2271 -0.1554
  139SOL    HW2  559   2.034   2.964   0.548  0.2780  0.0682 -0.0839
  139SOL    HW3  560   2.000   2.968   0.400  1.2253 -1.4830 -0.3519
  139SOL    MW4  561   2.041   3.001   0.469 -0.1972 -0.0196 -0.1718
  140SOL     OW  562   2.034   3.702   0.485  0.0703 -0.2490 -0.4125
  140SOL    HW2  563   2.129   3.711   0.477  0.2981 -0.3420  1.9184
  140SOL    HW3  564   2.019   3.680   0.577 -2.3116  1.1541 -0.4170
  140SOL    MW4  565   2.044   3.700   0.496 -0.2141 -0.0765 -0.1055
  141SOL     OW  566   2.188   4.063   0.445  0.4009 -0.1909 -0.0174
  141SOL    HW2  567   2.199   3.995   0.379  1.5678  0.6297 -0.6945
  141SOL    HW3  568   2.264   4.120   0.433 -0.8291  1.5224  0.1782
  141SOL    MW4  569   2.200   4.062   0.435  0.3927  0.1435 -0.0809
  142SOL     OW  570   1.628   3.631   0.564  0.2340  0.0274 -0.4160
  142SOL    HW2  571   1.635   3.538   0.541 -0.3936 -0.2289  0.3761
  142SOL    HW3  572   1.705   3.671   0.525 -0.2023 -0.5869 -1.9395
  142SOL    MW4  573   1.639   3.624   0.556  0.0935 -0.0875 -0.5125
  143SOL     OW  574   1.921   3.494   0.315 -0.1429 -0.1096 -0.0318
  143SOL    HW2  575   1.990   3.471   0.253  0.3406  0.9791  0.0885
  143SOL    HW3  576   1.957   3.568   0.364 -1.0394 -0.1221  0.6504
  143SOL    MW4  577   1.935   3.501   0.314 -0.1974  0.0324  0.0741
  144SOL     OW  578   2.098   4.472   0.519 -0.4577  0.3800 -0.2643
  144SOL    HW2  579   2.085   4.378   0.514 -0.1480  0.2875  0.5037
  144SOL    HW3  580   2.019   4.510   0.481 -1.1986 -0.1852  0.6754
  144SOL    MW4  581   2.086   4.465   0.513 -0.5147  0.2933 -0.0389
  145SOL     OW  582   1.976   4.232   0.451 -0.3572 -0.1351 -0.0303
  145SOL    HW2  583   1.902   4.173   0.464 -0.1796 -0.4097 -0.2543
  145SOL    HW3  584   2.051   4.174   0.436 -0.0989  0.1408  0.1840
  145SOL    MW4  585   1.976   4.217   0.450 -0.2996 -0.1349 -0.0316
  146SOL     OW  586   2.400   4.266   0.427 -0.1205  0.0417  0.0327
  146SOL    HW2  587   2.405   4.303   0.515  0.1200  1.9325 -0.7326
  146SOL    HW3  588   2.443   4.332   0.372  0.2055 -1.3607 -1.4171
  146SOL    MW4  589   2.407   4.280   0.431 -0.0460  0.1059 -0.2596
  147SOL     OW  590   2.329   3.898   0.261 -0.4062 -0.2203  0.0636
  147SOL    HW2  591   2.300   3.866   0.176 -2.8949 -0.4109  0.9562
  147SOL    HW3  592   2.310   3.826   0.321 -1.5763  1.0981  1.2955
  147SOL    MW4  593   2.323   3.884   0.258 -0.8888 -0.0718  0.3439
  148SOL     OW  594   2.773   3.919   0.507  0.4526 -0.9916  0.0740
  148SOL    HW2  595   2.692   3.948   0.465 -0.3534 -1.0761  1.5448
  148SOL    HW3  596   2.835   3.990   0.490 -1.1966  1.2066  2.7074
  148SOL    MW4  597   2.770   3.932   0.499  0.1285 -0.7126  0.6154
  149SOL     OW  598   2.443   0.470   0.445 -0.1337  0.0513 -0.7012
  149SOL    HW2  599   2.348   0.474   0.435 -0.5079 -0.1353  2.3024
  149SOL    HW3  600   2.466   0.382   0.415 -1.1464 -0.5133  0.1253
  149SOL    MW4  601   2.434   0.459   0.440 -0.3166 -0.0478 -0.1959
  150SOL     OW  602   1.740   0.305   0.341 -0.5560  0.2109 -0.2301
  150SOL    HW2  603   1.811   0.356   0.302  0.2332 -0.5133  0.2413
  150SOL    HW3  604   1.784   0.231   0.384 -1.6635 -0.7949 -0.7859
  150SOL    MW4  605   1.755   0.302   0.341 -0.5978 -0.0174 -0.2412
  151SOL     OW  606   3.138   0.373   0.376 -0.1672 -0.2754 -0.4922
  151SOL    HW2  607   3.229   0.402   0.372 -0.2056 -0.3883 -2.4564
  151SOL    HW3  608   3.143   0.279   0.391  0.0383 -0.2601 -0.4598
  151SOL    MW4  609   3.150   0.365   0.377 -0.1452 -0.2883 -0.7471
  152SOL     OW  610   2.467   1.115   0.474 -0.2923 -0.1457  0.2275
  152SOL    HW2  611   2.514   1.180   0.422 -1.5642 -0.0170 -0.8101
  152SOL    HW3  612   2.526   1.040   0.480  0.7120  0.6651  0.4091
  152SOL    MW4  613   2.481   1.114   0.468 -0.3276 -0.0216  0.1146
  153SOL     OW  614   3.261   0.784   0.429  0.3968  0.4497  0.3636
  153SOL    HW2  615   3.336   0.841   0.414  0.3857  0.6849  1.1917
  153SOL    HW3  616   3.219   0.819   0.507 -0.4028  0.1351  0.0754
  153SOL    MW4  617   3.266   0.796   0.437  0.2894  0.4392  0.4348
  154SOL     OW  618   3.198   1.614   0.475  0.1466 -0.0478 -0.4852
  154SOL    HW2  619   3.212   1.519   0.478  0.5070 -0.0112 -0.9386
  154SOL    HW3  620   3.283   1.650   0.448 -0.0034  0.3988 -0.3633
  154SOL    MW4  621   3.211   1.606   0.471  0.1743  0.0159 -0.5289
  155SOL     OW  622   3.195   1.192   0.366 -0.0563 -0.3762 -0.4635
  155SOL    HW2  623   3.158   1.161   0.284 -0.5160  0.2512 -0.4972
  155SOL    HW3  624   3.119   1.213   0.421  0.2461 -0.8704  0.1561
  155SOL    MW4  625   3.180   1.191   0.362 -0.0770 -0.3585 -0.3862
  156SOL     OW  626   3.430   1.770   0.426  0.5147 -0.3815 -0.2447
  156SOL    HW2  627   3.399   1.846   0.376 -0.6925  0.2849  1.4395
  156SOL    HW3  628   3.512   1.799   0.467  1.2249 -0.7504 -1.3968
  156SOL    MW4  629   3.437   1.784   0.425  0.4492 -0.3421 -0.1744
  157SOL     OW  630   2.763   0.195   0.617 -0.2209 -0.0867  0.0347
  157SOL    HW2  631   2.756   0.258   0.688  0.3814  0.2083 -0.1639
  157SOL    HW3  632   2.801   0.244   0.545  2.1748 -1.1704  0.5055
  157SOL    MW4  633   2.767   0.209   0.617  0.1748 -0.1907  0.0706
  158SOL     OW  634   3.165   2.071   0.619 -0.2639 -0.0588  0.0079
  158SOL    HW2  635   3.070   2.084   0.618 -0.0930  1.3703  0.8310
  158SOL    HW3  636   3.179   2.000   0.681 -0.7509  0.2496  0.4812
  158SOL    MW4  637   3.154   2.064   0.627 -0.3059  0.1702  0.1789
  159SOL     OW  638   2.825   2.416   0.303  0.0727 -0.2110  0.6937
  159SOL    HW2  639   2.852   2.399   0.212  0.7103 -0.3689  0.9063
  159SOL    HW3  640   2.908   2.418   0.351 -0.1107  1.8175  0.9576
  159SOL    MW4  641   2.840   2.414   0.297  0.1328  0.0355  0.7566
  160SOL     OW  642   2.947   1.496   0.379  0.4914 -0.1525 -0.6509
  160SOL    HW2  643   2.866   1.545   0.393 -0.0199 -0.7751 -1.3990
  160SOL    HW3  644   3.016   1.553   0.414 -0.4982 -0.7199  2.4192
  160SOL    MW4  645   2.946   1.510   0.386  0.2935 -0.3096 -0.3445
  161SOL     OW  646   2.620   2.521   0.471 -0.5137  0.3576 -0.1154
  161SOL    HW2  647   2.598   2.612   0.451 -2.8056 -0.2762 -0.6412
  161SOL    HW3  648   2.682   2.496   0.403 -1.3928  0.9387 -1.1591
  161SOL    MW4  649   2.625   2.530   0.460 -0.9322  0.3505 -0.3224
  162SOL     OW  650   2.736   3.193   0.572 -0.4343 -0.2867  0.1944
  162SOL    HW2  651   2.786   3.262   0.529 -0.4939 -0.7546 -0.6563
  162SOL    HW3  652   2.741   3.213   0.665  0.6943  0.0932  0.0603
  162SOL    MW4  653   2.743   3.204   0.578 -0.2933 -0.2985  0.0645
  163SOL     OW  654   2.856   3.393   0.422 -0.2042  0.3561 -0.0071
  163SOL    HW2  655   2.946   3.361   0.422 -0.4502 -0.3475  0.1826
  163SOL    HW3  656   2.864   3.488   0.434  0.4414  0.0848  1.9286
  163SOL    MW4  657   2.869   3.401   0.424 -0.1514  0.2277  0.2733
  164SOL     OW  658   3.095   3.249   0.482  0.0177 -0.7052 -0.1210
  164SOL    HW2  659   3.109   3.155   0.470  0.9128 -0.5202 -0.5920
  164SOL    HW3  660   3.095   3.262   0.577  2.1487 -0.8740 -0.0715
  164SOL    MW4  661   3.097   3.239   0.493  0.4170 -0.7031 -0.1766
  165SOL     OW  662   2.355   3.461   0.360 -0.0807 -0.0370 -0.1733
  165SOL    HW2  663   2.446   3.451   0.334  0.2804 -0.2526  1.1319
  165SOL    HW3  664   2.341   3.394   0.427 -0.5096  1.5390  1.3461
  165SOL    MW4  665   2.365   3.451   0.365 -0.0894  0.1426  0.1994
  166SOL     OW  666   2.164   3.460   0.116 -0.3000 -0.2642  0.0035
  166SOL    HW2  667   2.232   3.478   0.180  0.6914 -2.9235 -0.2599
  166SOL    HW3  668   2.210   3.422   0.041 -1.8005 -0.0221 -1.0737
  166SOL    MW4  669   2.179   3.458   0.114 -0.3669 -0.5832 -0.1734
  167SOL     OW  670   3.626   3.473   0.241 -0.0289 -0.1587  0.2110
  167SOL    HW2  671   3.668   3.416   0.305 -0.1699  0.3392  0.7415
  167SOL    HW3  672   3.532   3.456   0.251 -0.1522  1.1073  1.2539
  167SOL    MW4  673   3.619   3.463   0.251 -0.0641  0.0741  0.4186
  168SOL     OW  674   2.567   4.031   0.352  0.1755 -0.1024  0.1453
  168SOL    HW2  675   2.535   4.121   0.359  0.1061 -0.2279  1.6309
  168SOL    HW3  676   2.499   3.986   0.301 -0.1634  0.5186  0.0420
  168SOL    MW4  677   2.554   4.037   0.346  0.1214 -0.0372  0.3276
  169SOL     OW  678   2.304   3.705   0.463 -0.2195  0.1586  0.3902
  169SOL    HW2  679   2.334   3.694   0.553  0.3528  1.5741  0.3835
  169SOL    HW3  680   2.335   3.626   0.418 -1.8346 -1.2813  1.7632
  169SOL    MW4  681   2.312   3.693   0.469 -0.3569  0.1554  0.5704
  170SOL     OW  682   3.615   3.995   0.456  0.3557 -0.0046 -0.4791
  170SOL    HW2  683   3.541   4.048   0.427 -0.1411 -0.6166 -0.3304
  170SOL    HW3  684   3.597   3.907   0.422 -0.0062 -0.6268  1.2849
  170SOL    MW4  685   3.603   3.990   0.447  0.2425 -0.1674 -0.2268
  171SOL     OW  686   2.937   4.391   0.416 -0.1973 -0.1995  0.3253
  171SOL    HW2  687   2.915   4.414   0.506  2.2609 -0.9095  1.1735
  171SOL    HW3  688   2.900   4.304   0.404 -2.0225  0.6103  0.0627
  171SOL    MW4  689   2.929   4.382   0.427 -0.1137 -0.1864  0.4025
  172SOL     OW  690   3.394   4.408   0.464 -0.1013  0.8230 -0.6585
  172SOL    HW2  691   3.461   4.464   0.424  0.3419 -0.6527 -2.0510
  172SOL    HW3  692   3.311   4.442   0.430 -0.0868  2.6753  1.0935
  172SOL    MW4  693   3.392   4.420   0.454 -0.0410  0.8731 -0.6110
  173SOL     OW  694   3.161   4.522   0.339  0.2466 -0.2193  0.0251
  173SOL    HW2  695   3.080   4.479   0.365 -1.1408  2.1581 -0.2323
  173SOL    HW3  696   3.155   4.529   0.244  0.6621  0.1571  0.0278
  173SOL    MW4  697   3.150   4.517   0.330  0.1183  0.1440 -0.0085
  174SOL     OW  698   2.901   4.124   0.329  0.4334 -0.2225  0.4819
  174SOL    HW2  699   2.841   4.085   0.265  0.5219  0.1396  0.1784
  174SOL    HW3  700   2.988   4.098   0.299  0.5439  0.9024 -0.1943
  174SOL    MW4  701   2.905   4.115   0.316  0.4597 -0.0262  0.3527
  175SOL     OW  702   2.636   0.798   0.160 -0.1593  0.2429  0.2573
  175SOL    HW2  703   2.593   0.800   0.075 -2.9595  1.5592  1.6356
  175SOL    HW3  704   2.710   0.858   0.151 -0.8696  0.9425 -0.9968
  175SOL    MW4  705   2.640   0.806   0.148 -0.6225  0.5089  0.2737
  176SOL     OW  706   3.370   0.538   0.407  0.2702 -0.1552  0.2078
  176SOL    HW2  707   3.460   0.549   0.376 -0.4051  1.5470 -1.2402
  176SOL    HW3  708   3.335   0.626   0.411 -1.5017 -0.8418  0.2779
  176SOL    MW4  709   3.378   0.551   0.403 -0.0529 -0.0212  0.0260
  177SOL     OW  710   2.893   0.430   0.499  0.1603  0.0406 -0.4403
  177SOL    HW2  711   2.854   0.495   0.441  0.8170  1.9381  1.1806
  177SOL    HW3  712   2.979   0.412   0.462  0.0585  0.2508 -0.7783
  177SOL    MW4  713   2.899   0.437   0.486  0.2339  0.3187 -0.2710
  178SOL     OW  714   3.626   0.476   0.334  0.5257  0.4972 -0.2815
  178SOL    HW2  715   3.696   0.497   0.395  1.1198 -0.2491 -0.6837
  178SOL    HW3  716   3.671   0.457   0.251 -0.0307 -1.2340 -0.2236
  178SOL    MW4  717   3.641   0.476   0.331  0.5305  0.1703 -0.3269
  179SOL     OW  718   3.080   0.698   0.229  0.0216 -0.1405  0.0140
  179SOL    HW2  719   3.155   0.729   0.281 -0.4892  1.0397  0.0697
  179SOL    HW3  720   3.073   0.605   0.250  0.6610  0.0233  1.0074
  179SOL    MW4  721   3.089   0.690   0.239  0.0384  0.0368  0.1524
  180SOL     OW  722   3.672   1.870   0.534  0.1587 -0.0416  0.4444
  180SOL    HW2  723   3.660   1.830   0.620  0.5789 -0.5395  0.2767
  180SOL    HW3  724   3.624   1.953   0.539  0.0012 -0.1667  1.0842
  180SOL    MW4  725   3.664   1.876   0.546  0.1934 -0.1239  0.5066
  181SOL     OW  726   3.318   2.062   0.393  0.2821  0.0926  0.1062
  181SOL    HW2  727   3.264   2.045   0.470 -0.2699 -1.3581 -0.5880
  181SOL    HW3  728   3.294   2.150   0.366 -0.5181  0.0894  0.7921
  181SOL    MW4  729   3.308   2.071   0.399  0.1037 -0.0994  0.1051
  182SOL     OW  730   3.461   0.993   0.406 -0.0487 -0.3398  0.1282
  182SOL    HW2  731   3.407   1.069   0.384 -0.3891 -0.7055 -0.2983
  182SOL    HW3  732   3.470   0.997   0.501  2.9958  2.3322 -0.1781
  182SOL    MW4  733   3.455   1.004   0.416  0.3080 -0.0355  0.0316
  183SOL     OW  734   3.546   2.110   0.541 -0.1521 -0.1470  0.0121
  183SOL    HW2  735   3.466   2.100   0.489 -0.0598  2.8415 -0.8177
  183SOL    HW3  736   3.517   2.102   0.632 -1.0528 -1.1207 -0.3556
  183SOL    MW4  737   3.531   2.108   0.546 -0.2584  0.1187 -0.1459
  184SOL     OW  738   3.278   2.321   0.664  0.3195 -0.1254 -0.3826
  184SOL    HW2  739   3.235   2.236   0.652 -0.1981  0.2747 -1.3546
  184SOL    HW3  740   3.325   2.312   0.747  1.0196 -1.6935 -0.9294
  184SOL    MW4  741   3.279   2.308   0.674  0.3436 -0.2797 -0.5829
  185SOL     OW  742   3.573   2.739   0.600  0.3093  0.2954  0.3880
  185SOL    HW2  743   3.596   2.753   0.692  0.1804  0.0893  0.4507
  185SOL    HW3  744   3.622   2.660   0.576  0.7413  0.6353  0.1391
  185SOL    MW4  745   3.583   2.731   0.609  0.3493  0.3128  0.3635
  186SOL     OW  746   2.530   3.082   0.413  0.1945 -0.4175  0.4901
  186SOL    HW2  747   2.452   3.131   0.438  0.9492  0.4922  1.1408
  186SOL    HW3  748   2.595   3.105   0.480  1.3780 -0.2313 -0.6985
  186SOL    MW4  749   2.528   3.091   0.425  0.4501 -0.2728  0.4191
  187SOL     OW  750   3.138   2.752   0.277  0.1907 -0.6768  0.2746
  187SOL    HW2  751   3.125   2.663   0.312 -0.2763 -0.5200  0.5039
  187SOL    HW3  752   3.143   2.739   0.182  0.6061 -1.0039  0.3383
  187SOL    MW4  753   3.137   2.738   0.269  0.1838 -0.6993  0.3133
  188SOL     OW  754   2.928   2.855   0.836  0.0365  0.5010  0.1354
  188SOL    HW2  755   2.928   2.861   0.740  0.6130 -0.8813  0.0361
  188SOL    HW3  756   3.012   2.814   0.857 -0.3731  0.2052  1.2055
  188SOL    MW4  757   2.939   2.851   0.826  0.0587  0.2794  0.2635
  189SOL     OW  758   3.210   0.105   0.456 -0.4752  0.3376 -0.1488
  189SOL    HW2  759   3.191   0.089   0.548 -2.5473 -0.4524 -0.6987
  189SOL    HW3  760   3.185   0.024   0.412 -0.2176  0.9857 -1.5178
  189SOL    MW4  761   3.204   0.092   0.462 -0.7143  0.3189 -0.4020
  190SOL     OW  762   3.168   3.806   0.442  0.4314  0.2798 -0.3914
  190SOL    HW2  763   3.230   3.738   0.468 -0.5055 -0.3933  0.0704
  190SOL    HW3  764   3.158   3.861   0.519  0.1800  0.1893 -0.3603
  190SOL    MW4  765   3.175   3.805   0.455  0.2749  0.1793 -0.3264
  191SOL     OW  766   3.586   3.713   0.406 -0.3940 -0.5371 -0.9976
  191SOL    HW2  767   3.597   3.664   0.324 -0.8927  0.0877 -1.4482
  191SOL    HW3  768   3.504   3.680   0.443  0.1750 -1.2961 -0.4095
  191SOL    MW4  769   3.577   3.702   0.400 -0.3848 -0.5548 -0.9794
  192SOL     OW  770   3.575   3.244   0.455 -0.0179 -0.2746 -0.3069
  192SOL    HW2  771   3.664   3.278   0.445  0.1589 -0.9040 -0.8489
  192SOL    HW3  772   3.582   3.150   0.439 -0.4517 -0.6406  1.5658
  192SOL    MW4  773   3.587   3.236   0.451 -0.0517 -0.4060 -0.1314
  193SOL     OW  774   3.348   3.374   0.376 -0.3688  0.2761  0.5215
  193SOL    HW2  775   3.271   3.318   0.388  0.0541  0.0241  2.1589
  193SOL    HW3  776   3.419   3.327   0.418  0.8855  0.1078 -1.7461
  193SOL    MW4  777   3.347   3.361   0.383 -0.1476  0.2205  0.4384
  194SOL     OW  778   3.154   4.035   0.227 -0.4048 -0.4223  0.0936
  194SOL    HW2  779   3.152   3.958   0.284 -2.4794 -1.0543 -0.7998
  194SOL    HW3  780   3.176   4.001   0.140  0.4640  0.2356  0.0480
  194SOL    MW4  781   3.157   4.020   0.223 -0.5639 -0.4187 -0.0303
  195SOL     OW  782   2.601   3.343   0.297 -0.1004 -0.2395  0.2239
  195SOL    HW2  783   2.697   3.345   0.297 -0.1104  0.9111  0.7976
  195SOL    HW3  784   2.579   3.253   0.320  0.8401 -0.5830 -0.1868
  195SOL    MW4  785   2.611   3.332   0.300  0.0222 -0.1328  0.2454
  196SOL     OW  786   4.220   0.086   0.423  0.1675 -0.1911 -0.2651
  196SOL    HW2  787   4.306   0.067   0.459  1.3037  0.1804 -2.6490
  196SOL    HW3  788   4.169   0.006   0.437  1.2620 -0.8184  0.1681
  196SOL    MW4  789   4.225   0.073   0.429  0.4616 -0.2248 -0.5224
  197SOL     OW  790   3.734   0.168   0.364  0.3488 -0.6557 -0.2865
  197SOL    HW2  791   3.665   0.202   0.421 -0.4952 -0.6416 -1.3236
  197SOL    HW3  792   3.815   0.189   0.411 -0.2164  1.5510 -0.2412
  197SOL    MW4  793   3.736   0.176   0.378  0.1628 -0.3627 -0.4174
  198SOL     OW  794   3.514   0.260   0.492 -0.2598  0.2790  0.4276
  198SOL    HW2  795   3.425   0.225   0.486 -0.6656  1.1875  1.0640
  198SOL    HW3  796   3.510   0.345   0.448  0.1314  0.6269  1.0511
  198SOL    MW4  797   3.502   0.267   0.485 -0.2615  0.4448  0.5938
  199SOL     OW  798   3.858   0.583   0.506 -0.2223 -0.2815  0.4677
  199SOL    HW2  799   3.848   0.570   0.600 -0.2982 -0.3839  0.4465
  199SOL    HW3  800   3.927   0.522   0.481  0.5797  0.5615  0.6449
  199SOL    MW4  801   3.865   0.573   0.515 -0.1264 -0.1838  0.4883
  200SOL     OW  802   4.009   0.425   0.301 -0.3984 -0.2111  0.2596
  200SOL    HW2  803   4.098   0.405   0.273 -0.0993 -0.9321  1.6731
  200SOL    HW3  804   3.953   0.389   0.232  0.3877 -0.1656 -0.4023
  200SOL    MW4  805   4.013   0.417   0.289 -0.2556 -0.3002  0.3588
  201SOL     OW  806   4.227   0.822   0.434  0.1188  0.1436  0.0384
  201SOL    HW2  807   4.143   0.819   0.480  1.3257  1.7738  2.4336
  201SOL    HW3  808   4.204   0.807   0.342 -2.7843  0.6411  0.6312
  201SOL    MW4  809   4.213   0.819   0.428 -0.1049  0.4243  0.4326
  202SOL     OW  810   3.757   1.032   0.449 -0.4097  0.1008 -0.0604
  202SOL    HW2  811   3.757   1.127   0.462 -1.0781  0.0132  0.6539
  202SOL    HW3  812   3.665   1.010   0.437 -0.3698 -0.5925  0.8797
  202SOL    MW4  813   3.745   1.042   0.449 -0.4926 -0.0025  0.1579
  203SOL     OW  814   4.091   1.387   0.364 -0.2700 -0.6262 -0.4195
  203SOL    HW2  815   4.067   1.403   0.273  1.0536  0.3302 -0.6207
  203SOL    HW3  816   4.125   1.471   0.395  0.9308 -1.4067  0.4304
  203SOL    MW4  817   4.092   1.401   0.356  0.0634 -0.6028 -0.3339
  204SOL     OW  818   3.820   1.313   0.466 -0.0742  0.0507 -0.5722
  204SOL    HW2  819   3.909   1.343   0.448  0.5484 -0.5706  1.3655
  204SOL    HW3  820   3.766   1.391   0.454  0.7669  0.5019 -1.4793
  204SOL    MW4  821   3.825   1.328   0.462  0.1192  0.0283 -0.4362
  205SOL     OW  822   3.371   1.394   0.484  0.5465  0.4431  0.5071
  205SOL    HW2  823   3.381   1.369   0.576  0.6285 -0.2600  0.3115
  205SOL    HW3  824   3.328   1.319   0.443  1.2162  0.4252 -0.1844
  205SOL    MW4  825   3.367   1.381   0.491  0.6456  0.3480  0.3900
  206SOL     OW  826   3.670   1.568   0.494  0.4674  0.2500  0.4979
  206SOL    HW2  827   3.579   1.548   0.473  0.9476 -1.8063  0.2165
  206SOL    HW3  828   3.676   1.663   0.487 -1.2118  0.2591 -1.2436
  206SOL    MW4  829   3.659   1.578   0.490  0.3090 -0.0201  0.2310
  207SOL     OW  830   3.731   2.521   0.539 -0.6927  0.1762 -0.2782
  207SOL    HW2  831   3.684   2.456   0.487 -0.0598 -0.1047 -0.5151
  207SOL    HW3  832   3.722   2.491   0.629  0.2006 -0.6434 -0.4515
  207SOL    MW4  833   3.724   2.508   0.544 -0.4914  0.0310 -0.3324
  208SOL     OW  834   3.949   2.519   0.378 -0.1131  0.6220 -0.2286
  208SOL    HW2  835   3.873   2.517   0.435 -0.5031 -1.6275 -0.7790
  208SOL    HW3  836   4.017   2.473   0.426  1.2757  3.5985  0.7298
  208SOL    MW4  837   3.948   2.512   0.392  0.0186  0.7179 -0.1748
  209SOL     OW  838   3.070   2.489   0.401  0.2017 -0.3091  0.0491
  209SOL    HW2  839   3.147   2.444   0.366  0.5057 -0.4094  0.8263
  209SOL    HW3  840   3.086   2.493   0.496 -1.1226 -1.0273  0.3122
  209SOL    MW4  841   3.082   2.484   0.409  0.0670 -0.4170  0.1864
  210SOL     OW  842   2.907   3.661   0.498 -0.3169 -0.0650 -0.1509
  210SOL    HW2  843   2.993   3.699   0.481 -0.3534  0.2979  0.4550
  210SOL    HW3  844   2.846   3.735   0.494 -0.4885 -0.1803  0.2683
  210SOL    MW4  845   2.910   3.676   0.495 -0.3445 -0.0324 -0.0156
  211SOL     OW  846   3.092   2.954   0.441  0.2132 -0.1770  0.0122
  211SOL    HW2  847   3.109   2.892   0.370  1.3924 -0.3843  0.4720
  211SOL    HW3  848   3.007   2.927   0.476  0.1411 -0.7607 -0.5924
  211SOL    MW4  849   3.083   2.942   0.436  0.3593 -0.2811 -0.0069
  212SOL     OW  850   4.037   2.784   0.411 -0.0074  0.2221  0.3374
  212SOL    HW2  851   4.131   2.789   0.425  0.3498 -0.3473 -1.7067
  212SOL    HW3  852   4.022   2.695   0.379 -1.1452  0.5176  0.0125
  212SOL    MW4  853   4.047   2.773   0.408 -0.1101  0.1857  0.0249
  213SOL     OW  854   3.689   2.980   0.520 -0.0228 -0.0689  0.1176
  213SOL    HW2  855   3.763   2.979   0.580 -0.8920  1.1465  1.2398
  213SOL    HW3  856   3.640   2.900   0.541  0.4742 -0.4110 -0.0105
  213SOL    MW4  857   3.692   2.969   0.530 -0.0720  0.0463  0.2488
  214SOL     OW  858   3.982   3.751   0.388 -0.3572  0.1969 -0.8749
  214SOL    HW2  859   3.954   3.691   0.457  1.2728 -0.9656 -1.1751
  214SOL    HW3  860   3.949   3.712   0.307  1.0089 -0.5309 -1.1057
  214SOL    MW4  861   3.974   3.738   0.386  0.0381 -0.0525 -0.9449
  215SOL     OW  862   3.307   2.352   0.360  0.0648  0.1431 -0.0677
  215SOL    HW2  863   3.317   2.338   0.455  0.6899 -1.1256 -0.3117
  215SOL    HW3  864   3.395   2.371   0.329 -0.1736  0.7604 -0.3681
  215SOL    MW4  865   3.320   2.353   0.369  0.1156  0.0570 -0.1395
  216SOL     OW  866   3.349   3.613   0.514  0.6339 -0.1776 -0.0623
  216SOL    HW2  867   3.333   3.525   0.482  0.8374 -0.0432 -0.5389
  216SOL    HW3  868   3.374   3.601   0.606  0.9342 -0.6349 -0.2039
  216SOL    MW4  869   3.350   3.600   0.522  0.7005 -0.2198 -0.1438
  217SOL     OW  870   4.239   3.695   0.479  0.4979 -0.1635  0.0967
  217SOL    HW2  871   4.153   3.720   0.446  1.8157  0.3215 -3.0825
  217SOL    HW3  872   4.257   3.611   0.438  1.3054 -0.5688  1.2484
  217SOL    MW4  873   4.230   3.687   0.469  0.7777 -0.1531 -0.1708
  218SOL     OW  874   3.376   4.134   0.376 -0.3413 -0.1013  0.4814
  218SOL    HW2  875   3.377   4.227   0.395 -0.5451 -0.1589  0.7694
  218SOL    HW3  876   3.303   4.122   0.316  0.1415  0.0370 -0.1449
  218SOL    MW4  877   3.367   4.144   0.371 -0.3045 -0.0901  0.4368
  219SOL     OW  878   3.803   4.425   0.565 -0.1504  0.7191  0.0914
  219SOL    HW2  879   3.831   4.343   0.524  3.5400  2.3626 -0.9114
  219SOL    HW3  880   3.805   4.406   0.658  1.1197 -0.2443 -0.1058
  219SOL    MW4  881   3.807   4.411   0.572  0.5043  0.8087 -0.0669
  220SOL     OW  882   4.487   0.051   0.552  0.0323  0.0665  0.1389
  220SOL    HW2  883   4.539  -0.029   0.539  1.1800  0.6904  0.7360
  220SOL    HW3  884   4.486   0.064   0.647 -1.2111  0.0846  0.1307
  220SOL    MW4  885   4.494   0.042   0.563  0.0196  0.1512  0.2165
  221SOL     OW  886   3.957   0.838   0.508  0.0104 -0.1819  0.4079
  221SOL    HW2  887   3.897   0.900   0.467  0.7959 -0.7049 -1.5804
  221SOL    HW3  888   3.906   0.758   0.519 -0.0267 -0.2302 -0.1142
  221SOL    MW4  889   3.943   0.836   0.504  0.1092 -0.2573  0.0767
  222SOL     OW  890   0.055   1.764   0.115 -0.5524  0.3728  0.1154
  222SOL    HW2  891  -0.040   1.768   0.109 -0.4542  0.2165 -1.6918
  222SOL    HW3  892   0.087   1.801   0.033  0.9376 -0.3186  0.3516
  222SOL    MW4  893   0.047   1.770   0.104 -0.3428  0.2609 -0.0919
  223SOL     OW  894   4.288   0.339   0.316  0.2357 -0.0511 -0.3072
  223SOL    HW2  895   4.282   0.253   0.359  0.4949 -1.0014 -2.1213
  223SOL    HW3  896   4.330   0.395   0.381  0.8237 -1.5146  0.6100
  223SOL    MW4  897   4.293   0.335   0.331  0.3476 -0.3695 -0.4255
  224SOL     OW  898   4.423   0.996   0.519  0.2232  0.1430  0.6590
  224SOL    HW2  899   4.413   1.089   0.498  1.9574  0.3986  0.8412
  224SOL    HW3  900   4.347   0.954   0.480  0.4215  1.3750 -1.1374
  224SOL    MW4  901   4.412   1.003   0.511  0.4783  0.3393  0.4461
  225SOL     OW  902   3.626   4.620   0.484  0.1324  0.2208  0.2929
  225SOL    HW2  903   3.698   4.560   0.507  0.2822  0.9914  1.9105
  225SOL    HW3  904   3.668   4.687   0.430  0.1759 -0.5631 -0.6493
  225SOL    MW4  905   3.641   4.621   0.480  0.1581  0.2189  0.3820
  226SOL     OW  906   4.321   1.253   0.438 -0.4157 -0.0343  0.4140
  226SOL    HW2  907   4.295   1.266   0.529 -0.8701  1.2886  0.0987
  226SOL    HW3  908   4.248   1.288   0.387 -0.3576 -1.1673 -0.4695
  226SOL    MW4  909   4.308   1.259   0.444 -0.4678 -0.0093  0.2559
  227SOL     OW  910   0.064   1.376   0.431  0.0045  0.1719  0.3636
  227SOL    HW2  911  -0.028   1.360   0.453  0.0327  0.0479  0.3884
  227SOL    HW3  912   0.108   1.292   0.446 -0.2601 -0.3577 -1.7075
  227SOL    MW4  913   0.058   1.363   0.436 -0.0267  0.0856  0.0936
  228SOL     OW  914   4.001   2.123   0.475  0.2776  0.1663  0.2714
  228SOL    HW2  915   3.945   2.163   0.410 -1.1601 -0.5381  1.0570
  228SOL    HW3  916   4.055   2.195   0.508 -0.6254  0.9890 -0.0231
  228SOL    MW4  917   4.001   2.138   0.471 -0.0315  0.1819  0.3362
  229SOL     OW  918   4.084   1.845   0.531 -0.0398 -0.0774 -0.2025
  229SOL    HW2  919   4.153   1.912   0.529  0.3169 -0.4158  0.5911
  229SOL    HW3  920   4.005   1.892   0.506  0.2824  0.5500 -0.0649
  229SOL    MW4  921   4.083   1.860   0.527  0.0501 -0.0393 -0.0797
  230SOL     OW  922   4.389   2.139   0.438 -0.2060  0.2837 -0.1796
  230SOL    HW2  923   4.430   2.224   0.455 -0.0408  0.2077 -0.1991
  230SOL    HW3  924   4.462   2.080   0.418 -0.4035  0.4178 -1.3644
  230SOL    MW4  925   4.404   2.142   0.437 -0.2103  0.2911 -0.3385
  231SOL     OW  926   4.195   2.081   0.251  0.0264  0.3435  0.0529
  231SOL    HW2  927   4.117   2.106   0.301 -0.6395 -1.5581  0.0173
  231SOL    HW3  928   4.268   2.116   0.301 -0.7768  0.8589  0.8882
  231SOL    MW4  929   4.194   2.089   0.264 -0.1678  0.1607  0.1584
  232SOL     OW  930   4.449   2.405   0.513  0.4134  0.1371 -0.1520
  232SOL    HW2  931   4.520   2.443   0.461  0.3993  0.3830  0.0065
  232SOL    HW3  932   4.458   2.446   0.599 -0.0161  0.2873 -0.1783
  232SOL    MW4  933   4.460   2.416   0.517  0.3548  0.1895 -0.1345
  233SOL     OW  934   3.927   3.032   0.329  0.3556 -0.0995 -0.0974
  233SOL    HW2  935   3.971   2.947   0.333  0.3463 -0.1162 -0.3101
  233SOL    HW3  936   3.835   3.012   0.342  0.2479 -0.2283 -1.0097
  233SOL    MW4  937   3.921   3.018   0.331  0.3397 -0.1185 -0.2458
  234SOL     OW  938   4.166   2.360   0.541 -0.4325 -0.2206 -0.0345
  234SOL    HW2  939   4.147   2.400   0.626  0.7740 -0.5862  0.4129
  234SOL    HW3  940   4.261   2.351   0.539 -0.4696 -0.4393 -1.3277
  234SOL    MW4  941   4.176   2.364   0.552 -0.2789 -0.2975 -0.1462
  235SOL     OW  942   0.166   3.630   0.453  0.6026  0.0063  0.0894
  235SOL    HW2  943   0.117   3.711   0.434 -1.1742 -0.9063  0.6483
  235SOL    HW3  944   0.257   3.658   0.456  0.0207  2.0101  0.3076
  235SOL    MW4  945   0.171   3.644   0.450  0.2914  0.1502  0.1920
  236SOL     OW  946   3.829   3.631   0.155 -0.2191  0.6102  0.1753
  236SOL    HW2  947   3.764   3.565   0.180 -0.5211  0.7587 -0.2107
  236SOL    HW3  948   3.801   3.660   0.068 -0.2077  1.3942  0.4288
  236SOL    MW4  949   3.817   3.626   0.147 -0.2575  0.7336  0.1578
  237SOL     OW  950   0.604   3.221   0.451 -0.1321  0.1141 -0.2412
  237SOL    HW2  951   0.560   3.264   0.523  1.8680 -0.8478  1.6264
  237SOL    HW3  952   0.669   3.284   0.420 -0.3956  0.1982 -0.6290
  237SOL    MW4  953   0.607   3.235   0.456  0.0970 -0.0014 -0.0460
  238SOL     OW  954   3.803   3.602   0.543  0.0663  0.2827  0.1482
  238SOL    HW2  955   3.730   3.645   0.498 -0.5209 -0.6474  0.1933
  238SOL    HW3  956   3.782   3.612   0.636 -0.6284 -1.0140  0.1470
  238SOL    MW4  957   3.790   3.609   0.550 -0.1028 -0.0110  0.1540
  239SOL     OW  958   4.083   3.204   0.489  0.6559 -0.1401  0.3380
  239SOL    HW2  959   4.048   3.186   0.577 -0.1641 -0.9370 -0.1453
  239SOL    HW3  960   4.035   3.144   0.432  0.8812  0.6843 -0.7193
  239SOL    MW4  961   4.072   3.194   0.493  0.5774 -0.1364  0.1348
  240SOL     OW  962   4.304   4.081   0.523 -0.2837 -0.1681  0.0186
  240SOL    HW2  963   4.224   4.029   0.532 -0.4169  0.1652  0.8536
  240SOL    HW3  964   4.359   4.053   0.597  0.6774 -0.9337 -0.9793
  240SOL    MW4  965   4.301   4.070   0.534 -0.1745 -0.2255 -0.0029
  241SOL     OW  966   4.010   3.999   0.512  0.1349 -0.3249  0.4773
  241SOL    HW2  967   3.992   3.915   0.469 -0.0086 -0.5530  0.9853
  241SOL    HW3  968   3.941   4.057   0.481 -0.4274 -0.7037  1.0130
  241SOL    MW4  969   3.999   3.996   0.502  0.0420 -0.4048  0.6151
  242SOL     OW  970   3.846   4.195   0.413 -0.0829  0.0300  0.1268
  242SOL    HW2  971   3.757   4.160   0.408 -0.3539  0.8864 -1.5756
  242SOL    HW3  972   3.868   4.215   0.322  1.7573  0.0612  0.5664
  242SOL    MW4  973   3.837   4.193   0.400  0.1245  0.1473 -0.0398
  243SOL     OW  974   4.083   4.504   0.485  0.2778 -0.0106  0.6804
  243SOL    HW2  975   4.126   4.455   0.555  0.3212 -2.1694 -0.7970
  243SOL    HW3  976   3.990   4.482   0.495  0.5265 -2.1941 -1.2797
  243SOL    MW4  977   4.076   4.494   0.495  0.3166 -0.5836  0.2269
  244SOL     OW  978   0.237   4.639   0.905 -0.0125  0.0359 -0.0794
  244SOL    HW2  979   0.240   4.549   0.873  0.7912 -0.4322  1.2557
  244SOL    HW3  980   0.154   4.673   0.873 -0.1882 -1.0821 -0.8520
  244SOL    MW4  981   0.227   4.632   0.897  0.0704 -0.1731 -0.0052
  245SOL     OW  982   0.013   0.085   0.819  0.2642  0.1498  0.0563
  245SOL    HW2  983  -0.079   0.063   0.806  0.5509 -0.4940 -0.9485
  245SOL    HW3  984   0.015   0.181   0.817 -0.2574  0.1508 -0.8734
  245SOL    MW4  985   0.001   0.095   0.817  0.2332  0.0650 -0.1990
  246SOL     OW  986   4.487   0.362   0.829 -0.0039  0.5052 -0.2843
  246SOL    HW2  987   4.479   0.373   0.924  0.4936 -0.8855 -0.0606
  246SOL    HW3  988   4.567   0.410   0.806  0.6249 -0.2600  0.2320
  246SOL    MW4  989   4.497   0.370   0.839  0.1450  0.2207 -0.1867
  247SOL     OW  990   0.196   0.537   0.755  0.4160  0.0274  0.0358
  247SOL    HW2  991   0.269   0.487   0.792 -0.3548  0.6097  2.3834
  247SOL    HW3  992   0.206   0.625   0.790 -0.1726  0.6959 -1.4016
  247SOL    MW4  993   0.207   0.542   0.764  0.2367  0.1925  0.1559
  248SOL     OW  994   0.197   0.791   0.846  0.4157  0.0039  0.0908
  248SOL    HW2  995   0.193   0.772   0.939  0.2556 -0.3941  0.0055
  248SOL    HW3  996   0.111   0.828   0.825 -0.5118 -2.3433 -0.4140
  248SOL    MW4  997   0.185   0.794   0.855  0.2722 -0.3583  0.0129
  249SOL     OW  998   4.443   0.893   0.781 -0.1642  0.3289 -0.1287
  249SOL    HW2  999   4.360   0.857   0.811 -0.6671  0.8563 -0.8740
  249SOL    HW3 1000   4.432   0.903   0.686  0.6875  0.5504 -0.2079
  249SOL    MW4 1001   4.431   0.889   0.772 -0.1183  0.4278 -0.2375
  250SOL     OW 1002   0.014   1.152   0.856  0.3848 -0.4110  0.0081
  250SOL    HW2 1003   0.001   1.160   0.951 -0.0257 -1.1078  0.0103
  250SOL    HW3 1004   0.001   1.059   0.838 -0.3087 -0.1499 -0.8530
  250SOL    MW4 1005   0.011   1.141   0.866  0.2394 -0.4685 -0.1052
  251SOL     OW 1006   0.244   1.232   0.731  0.1242  0.4462 -0.3929
  251SOL    HW2 1007   0.160   1.207   0.771  0.2725 -0.5901 -0.7048
  251SOL    HW3 1008   0.251   1.177   0.653  0.9329  0.7716 -0.5563
  251SOL    MW4 1009   0.234   1.221   0.726  0.2505  0.3523 -0.4557
  252SOL     OW 1010   0.239   1.505   0.842  0.2873 -0.6838 -0.3458
  252SOL    HW2 1011   0.328   1.537   0.832  0.1110  0.1527  0.6158
  252SOL    HW3 1012   0.239   1.418   0.803  0.9409  0.2450 -2.4630
  252SOL    MW4 1013   0.251   1.498   0.836  0.3503 -0.4508 -0.4982
  253SOL     OW 1014   0.017   1.651   0.793  0.1645  0.4783  0.2583
  253SOL    HW2 1015  -0.064   1.605   0.815  0.3317  0.0544 -0.0035
  253SOL    HW3 1016   0.087   1.596   0.828  0.3168  1.1829  1.0784
  253SOL    MW4 1017   0.015   1.638   0.801  0.2067  0.5153  0.3320
  254SOL     OW 1018   0.011   1.943   0.816  0.1994  0.3523 -0.2196
  254SOL    HW2 1019   0.088   1.974   0.769  0.3159  0.2064 -0.1246
  254SOL    HW3 1020   0.013   1.848   0.806  0.5242  0.2788  0.5476
  254SOL    MW4 1021   0.021   1.935   0.808  0.2576  0.3234 -0.1058
  255SOL     OW 1022   0.252   2.026   0.679 -0.0471  0.0776 -0.0926
  255SOL    HW2 1023   0.255   2.121   0.675  0.3850  0.0875  0.4545
  255SOL    HW3 1024   0.289   1.997   0.596  1.6393  0.3654  0.5492
  255SOL    MW4 1025   0.257   2.035   0.668  0.2324  0.1171  0.0643
  256SOL     OW 1026   0.291   2.305   0.790  0.2407  0.0482  0.0167
  256SOL    HW2 1027   0.279   2.288   0.883 -0.7164  0.7066  0.0178
  256SOL    HW3 1028   0.364   2.366   0.785  0.1924  0.1296  0.3432
  256SOL    MW4 1029   0.299   2.311   0.801  0.1080  0.1457  0.0600
  257SOL     OW 1030   0.058   2.471   0.770 -0.1666 -0.1071  0.3200
  257SOL    HW2 1031  -0.006   2.404   0.794 -0.1686  0.1300  0.9920
  257SOL    HW3 1032   0.142   2.426   0.770 -0.0823  0.0183  1.4067
  257SOL    MW4 1033   0.061   2.456   0.773 -0.1556 -0.0594  0.5520
  258SOL     OW 1034   0.078   2.742   0.831  0.4940  0.4122 -0.1770
  258SOL    HW2 1035   0.077   2.745   0.927  0.1071  0.4074 -0.1805
  258SOL    HW3 1036   0.074   2.649   0.810  0.3350  0.4224 -0.1974
  258SOL    MW4 1037   0.077   2.730   0.841  0.4220  0.4127 -0.1801
  259SOL     OW 1038   0.285   2.860   0.706  0.0185  0.0447 -0.6608
  259SOL    HW2 1039   0.208   2.810   0.736  1.2044 -1.2842  0.2794
  259SOL    HW3 1040   0.278   2.860   0.611 -1.8033  1.0150 -0.5447
  259SOL    MW4 1041   0.274   2.853   0.697 -0.0654 -0.0024 -0.5214
  260SOL     OW 1042   0.240   3.114   0.787  0.2006 -0.2643 -0.1309
  260SOL    HW2 1043   0.247   3.115   0.883 -2.8804  0.7983  0.1497
  260SOL    HW3 1044   0.249   3.022   0.763  1.1870 -0.5165  1.1459
  260SOL    MW4 1045   0.242   3.102   0.797 -0.0757 -0.1576  0.0745
  261SOL     OW 1046   0.026   3.228   0.656 -0.0138  1.0060 -0.0977
  261SOL    HW2 1047   0.102   3.187   0.696 -0.3831  0.1975 -0.2203
  261SOL    HW3 1048   0.061   3.277   0.581  0.5265  1.5802  0.5310
  261SOL    MW4 1049   0.040   3.229   0.651  0.0088  0.9747 -0.0310
  262SOL     OW 1050   4.471   3.444   0.831  0.3916 -0.0275 -0.2084
  262SOL    HW2 1051   4.402   3.497   0.793  1.4514  1.2417 -0.3962
  262SOL    HW3 1052   4.481   3.370   0.771  2.5934  2.3481 -2.9536
  262SOL    MW4 1053   4.463   3.441   0.818  0.8225  0.4532 -0.5954
  263SOL     OW 1054   0.163   3.609   0.734  0.1592 -0.2594  0.0282
  263SOL    HW2 1055   0.105   3.543   0.772 -0.2588 -0.0836 -0.3052
  263SOL    HW3 1056   0.161   3.592   0.640 -0.3644  0.5450 -0.1173
  263SOL    MW4 1057   0.155   3.598   0.727  0.0350 -0.1302 -0.0350
  264SOL     OW 1058   0.219   3.897   0.814 -0.3377  0.7481  0.2397
  264SOL    HW2 1059   0.225   3.923   0.906 -0.0447 -1.8850  1.0064
  264SOL    HW3 1060   0.181   3.810   0.816 -0.2607  0.6199 -2.1604
  264SOL    MW4 1061   0.215   3.889   0.826 -0.2889  0.3839  0.0241
  265SOL     OW 1062   4.470   4.012   0.726 -0.3379  0.0334 -0.1509
  265SOL    HW2 1063   4.415   3.950   0.773  0.5304 -0.7490 -0.1484
  265SOL    HW3 1064   4.560   3.981   0.741 -0.0742 -0.4813 -2.6773
  265SOL    MW4 1065   4.475   4.000   0.734 -0.1888 -0.1369 -0.4839
  266SOL     OW 1066   4.440   4.281   0.798 -0.5613  0.6227  0.4230
  266SOL    HW2 1067   4.433   4.277   0.893  0.3407  2.3855  0.5932
  266SOL    HW3 1068   4.443   4.189   0.769 -0.2345  0.0887  2.1376
  266SOL    MW4 1069   4.440   4.268   0.806 -0.3996  0.7854  0.6717
  267SOL     OW 1070   0.215   4.407   0.757  0.4245  0.1403  0.4580
  267SOL    HW2 1071   0.130   4.363   0.760 -0.4212  1.7912  1.0778
  267SOL    HW3 1072   0.217   4.448   0.671  1.1700 -0.9735 -0.0766
  267SOL    MW4 1073   0.204   4.406   0.746  0.4113  0.2112  0.4691
  268SOL     OW 1074   0.674   0.053   0.869 -0.1875  0.7527  0.0174
  268SOL    HW2 1075   0.669   0.046   0.964 -0.7568 -3.2461 -0.2361
  268SOL    HW3 1076   0.588   0.084   0.842 -0.8060 -0.3572  0.6719
  268SOL    MW4 1077   0.662   0.056   0.878 -0.3442  0.0786  0.0703
  269SOL     OW 1078   0.414   0.150   0.764  0.0868  0.1817  0.3739
  269SOL    HW2 1079   0.352   0.083   0.793  0.5958 -1.0853 -1.4128
  269SOL    HW3 1080   0.427   0.133   0.671  3.1742  0.3766  0.7030
  269SOL    MW4 1081   0.407   0.139   0.756  0.5613  0.0403  0.1816
  270SOL     OW 1082   0.414   0.402   0.886 -0.3629 -0.4535  0.0164
  270SOL    HW2 1083   0.504   0.424   0.859 -0.4867  0.4523  0.3198
  270SOL    HW3 1084   0.392   0.326   0.833  0.2706 -0.1449 -0.7167
  270SOL    MW4 1085   0.423   0.395   0.875 -0.2956 -0.2933 -0.0404
  271SOL     OW 1086   0.655   0.493   0.766 -0.0934 -0.7578  0.4305
  271SOL    HW2 1087   0.745   0.463   0.778  0.0748  0.2050  1.7506
  271SOL    HW3 1088   0.652   0.527   0.677  0.6670 -1.4179  0.1511
  271SOL    MW4 1089   0.667   0.493   0.756  0.0291 -0.7178  0.5677
  272SOL     OW 1090   0.708   0.765   0.803  0.2598  0.5859 -0.3494
  272SOL    HW2 1091   0.629   0.803   0.764  0.2508 -0.1142 -1.0290
  272SOL    HW3 1092   0.693   0.671   0.800  1.2286  0.4353 -0.7263
  272SOL    MW4 1093   0.696   0.758   0.797  0.3864  0.4736 -0.4888
  273SOL     OW 1094   0.452   0.872   0.749  0.5727 -0.1548 -0.0383
  273SOL    HW2 1095   0.473   0.958   0.785  0.9176 -0.9498  1.7311
  273SOL    HW3 1096   0.368   0.849   0.789  2.0201 -2.0019  2.0495
  273SOL    MW4 1097   0.444   0.880   0.759  0.8091 -0.5034  0.4706
  274SOL     OW 1098   0.481   1.132   0.844  0.1479 -0.2275 -0.7328
  274SOL    HW2 1099   0.559   1.167   0.801 -1.1941  0.0756 -3.0162
  274SOL    HW3 1100   0.408   1.177   0.802 -1.3139 -1.1139  0.7762
  274SOL    MW4 1101   0.482   1.143   0.833 -0.2221 -0.3045 -0.8350
  275SOL     OW 1102   0.708   1.261   0.756 -0.0869 -0.4571 -0.2270
  275SOL    HW2 1103   0.705   1.356   0.767  1.0134 -0.4894  0.4178
  275SOL    HW3 1104   0.728   1.249   0.663 -0.8247 -0.0637 -0.4347
  275SOL    MW4 1105   0.710   1.272   0.745 -0.0390 -0.4095 -0.1693
  276SOL     OW 1106   0.716   1.533   0.849  0.0311 -0.2487  0.1080
  276SOL    HW2 1107   0.706   1.528   0.944 -0.4706 -0.4323  0.0472
  276SOL    HW3 1108   0.628   1.550   0.817  0.2764  0.2824 -0.2928
  276SOL    MW4 1109   0.703   1.535   0.858 -0.0028 -0.2029  0.0471
  277SOL     OW 1110   0.480   1.623   0.753 -0.1510 -0.2407  0.1069
  277SOL    HW2 1111   0.494   1.714   0.778  0.7560 -0.5453  0.7504
  277SOL    HW3 1112   0.474   1.625   0.658 -2.1558  0.7483  0.2394
  277SOL    MW4 1113   0.481   1.635   0.744 -0.2959 -0.1504  0.2092
  278SOL     OW 1114   0.445   1.909   0.866  0.5460  0.1601  0.1655
  278SOL    HW2 1115   0.446   1.926   0.960  0.9052  1.3606 -0.0367
  278SOL    HW3 1116   0.368   1.955   0.834  0.5953  0.0109 -0.1692
  278SOL    MW4 1117   0.435   1.917   0.874  0.5999  0.2989  0.0947
  279SOL     OW 1118   0.623   2.093   0.753  0.0122  0.2737  0.0338
  279SOL    HW2 1119   0.571   2.028   0.800  1.1958 -0.4867  0.3058
  279SOL    HW3 1120   0.596   2.083   0.661 -1.2082  0.7356  0.3353
  279SOL    MW4 1121   0.613   2.083   0.747  0.0073  0.2344  0.1095
  280SOL     OW 1122   0.692   2.360   0.850  0.6441 -0.3306 -0.2685
  280SOL    HW2 1123   0.713   2.351   0.943  2.5028 -0.4349 -0.6816
  280SOL    HW3 1124   0.671   2.270   0.822 -0.7412 -0.1735  0.2227
  280SOL    MW4 1125   0.692   2.347   0.859  0.7066 -0.3235 -0.2581
  281SOL     OW 1126   0.469   2.496   0.773 -0.0415  0.1812  0.2346
  281SOL    HW2 1127   0.546   2.448   0.804  0.2419 -0.0926 -0.8604
  281SOL    HW3 1128   0.489   2.516   0.681 -0.3039  2.0954  0.5670
  281SOL    MW4 1129   0.482   2.493   0.765 -0.0387  0.3979  0.1340
  282SOL     OW 1130   0.492   2.763   0.873  0.1537  0.1351 -0.1686
  282SOL    HW2 1131   0.472   2.670   0.856 -0.1886  0.0630  0.6297
  282SOL    HW3 1132   0.423   2.810   0.826  0.5940 -0.0018 -0.9558
  282SOL    MW4 1133   0.480   2.757   0.864  0.1666  0.1073 -0.1671
  283SOL     OW 1134   0.713   2.858   0.731 -0.0763 -0.3340 -0.0246
  283SOL    HW2 1135   0.795   2.811   0.749  0.2084  0.1649  0.0003
  283SOL    HW3 1136   0.646   2.807   0.775  0.2916 -0.4559  0.3995
  283SOL    MW4 1137   0.715   2.845   0.739  0.0098 -0.2842  0.0345
  284SOL     OW 1138   0.675   3.118   0.808 -0.3352 -0.1306 -0.2814
  284SOL    HW2 1139   0.602   3.159   0.763 -0.8360 -1.4289 -0.6823
  284SOL    HW3 1140   0.686   3.033   0.764  0.9014 -0.2740  0.2775
  284SOL    MW4 1141   0.667   3.112   0.796 -0.2382 -0.3209 -0.2606
  285SOL     OW 1142   0.460   3.252   0.710 -0.0068  0.6523  0.2008
  285SOL    HW2 1143   0.443   3.339   0.746  0.6115  0.7451  0.2711
  285SOL    HW3 1144   0.382   3.201   0.734  0.6330  0.5581  2.1693
  285SOL    MW4 1145   0.447   3.257   0.718  0.1592  0.6523  0.4699
  286SOL     OW 1146   0.406   3.495   0.834 -0.1127  0.1207 -0.2850
  286SOL    HW2 1147   0.414   3.508   0.929  0.0966 -0.3274 -0.2372
  286SOL    HW3 1148   0.327   3.543   0.809  0.0707  0.5943  0.0485
  286SOL    MW4 1149   0.397   3.503   0.844 -0.0609  0.1240 -0.2347
  287SOL     OW 1150   0.651   3.614   0.791  0.1119 -0.0462  0.0659
  287SOL    HW2 1151   0.571   3.562   0.801  1.0007 -1.2904  0.9311
  287SOL    HW3 1152   0.623   3.704   0.805 -0.8716 -0.6013  1.9390
  287SOL    MW4 1153   0.637   3.619   0.794  0.0994 -0.2837  0.4272
  288SOL     OW 1154   0.628   3.891   0.838  0.3136 -0.2211  0.0996
  288SOL    HW2 1155   0.707   3.919   0.791  0.7253 -1.0518  0.2817
  288SOL    HW3 1156   0.559   3.947   0.804  0.9557  0.4193 -0.1747
  288SOL    MW4 1157   0.630   3.902   0.827  0.4526 -0.2463  0.0874
  289SOL     OW 1158   0.448   4.053   0.710 -0.6191  0.2156  0.0926
  289SOL    HW2 1159   0.438   4.141   0.747 -0.5350 -0.0823  0.8447
  289SOL    HW3 1160   0.375   4.003   0.749  0.1152 -0.3834  0.7221
  289SOL    MW4 1161   0.437   4.058   0.720 -0.5112  0.0973  0.2750
  290SOL     OW 1162   0.462   4.311   0.836 -0.1897  0.0855  0.0109
  290SOL    HW2 1163   0.451   4.301   0.931  1.6962 -0.7952  0.1585
  290SOL    HW3 1164   0.381   4.354   0.807 -1.6796 -1.5052  1.6987
  290SOL    MW4 1165   0.450   4.315   0.845 -0.1375 -0.2408  0.2530
  291SOL     OW 1166   0.700   4.456   0.785 -0.2529  0.2523 -0.5582
  291SOL    HW2 1167   0.629   4.396   0.805  1.6557 -1.6037  0.9028
  291SOL    HW3 1168   0.678   4.537   0.831 -1.4812 -0.2582 -0.2490
  291SOL    MW4 1169   0.688   4.459   0.793 -0.1631 -0.0591 -0.3246
  292SOL     OW 1170   1.152   0.023   0.892  0.3361 -0.3815 -0.3199
  292SOL    HW2 1171   1.215   0.081   0.849 -0.4438  1.1449  0.5573
  292SOL    HW3 1172   1.067   0.052   0.860 -0.2120  0.3834  1.7681
  292SOL    MW4 1173   1.149   0.035   0.882  0.1608 -0.0792  0.0713
  293SOL     OW 1174   0.921   0.108   0.748 -0.7084 -0.0304 -0.2963
  293SOL    HW2 1175   0.943   0.197   0.774 -1.9157  0.4014 -0.7185
  293SOL    HW3 1176   0.834   0.092   0.785 -1.1995 -0.4397 -1.5990
  293SOL    MW4 1177   0.912   0.118   0.756 -0.9325 -0.0275 -0.5239
  294SOL     OW 1178   0.899   0.368   0.840  0.3934 -0.1258 -0.3287
  294SOL    HW2 1179   0.900   0.375   0.935  0.2513  3.1493 -0.4950
  294SOL    HW3 1180   0.981   0.410   0.812  1.4715 -2.9344 -1.6190
  294SOL    MW4 1181   0.910   0.375   0.849  0.5169 -0.0643 -0.5209
  295SOL     OW 1182   1.130   0.504   0.746 -0.0347 -0.3376  0.5341
  295SOL    HW2 1183   1.204   0.456   0.784  0.9329  1.3297  0.7908
  295SOL    HW3 1184   1.149   0.507   0.652  0.0212 -0.2595  0.5479
  295SOL    MW4 1185   1.142   0.498   0.739  0.1003 -0.1073  0.5698
  296SOL     OW 1186   1.153   0.777   0.807  0.1780 -0.2716  0.0998
  296SOL    HW2 1187   1.140   0.770   0.901 -3.6279  0.2590 -0.3019
  296SOL    HW3 1188   1.158   0.687   0.776 -0.9647 -0.4944  0.5456
  296SOL    MW4 1189   1.152   0.764   0.815 -0.4748 -0.2310  0.1056
  297SOL     OW 1190   0.910   0.914   0.692 -0.1794 -0.3233 -0.2846
  297SOL    HW2 1191   0.998   0.880   0.708 -0.3291 -1.6237 -2.0072
  297SOL    HW3 1192   0.852   0.847   0.728 -0.4610 -0.8243 -1.6236
  297SOL    MW4 1193   0.914   0.900   0.699 -0.2364 -0.5610 -0.6886
  298SOL     OW 1194   0.906   1.123   0.880  0.0335 -0.0901  0.5101
  298SOL    HW2 1195   0.915   1.045   0.826 -0.6633  0.0233  0.2297
  298SOL    HW3 1196   0.835   1.173   0.839  0.0206  0.3636  1.0808
  298SOL    MW4 1197   0.898   1.119   0.867 -0.0601 -0.0153  0.5484
  299SOL     OW 1198   1.116   1.310   0.748 -0.0579  0.0068 -0.0473
  299SOL    HW2 1199   1.057   1.250   0.794 -0.0431  0.4386  0.5505
  299SOL    HW3 1200   1.096   1.297   0.655 -0.5293 -0.4329  0.1098
  299SOL    MW4 1201   1.105   1.301   0.742 -0.1183  0.0057  0.0523
  300SOL     OW 1202   1.140   1.545   0.899  0.5899 -0.3170 -0.2505
  300SOL    HW2 1203   1.069   1.606   0.880  0.0500 -0.9046 -0.1116
  300SOL    HW3 1204   1.122   1.469   0.845  0.8269 -0.6759  0.1721
  300SOL    MW4 1205   1.128   1.543   0.890  0.5499 -0.4419 -0.1764
  301SOL     OW 1206   0.936   1.697   0.804  0.3273  0.2850  0.6032
  301SOL    HW2 1207   0.922   1.791   0.811  0.4245  0.3403  0.1111
  301SOL    HW3 1208   0.851   1.658   0.824 -0.1539  0.5488 -0.8291
  301SOL    MW4 1209   0.923   1.704   0.808  0.2766  0.3271  0.3493
  302SOL     OW 1210   0.883   1.964   0.844  0.3186 -0.4851 -0.0059
  302SOL    HW2 1211   0.879   1.973   0.940  0.2592  2.4116 -0.2201
  302SOL    HW3 1212   0.800   2.001   0.813  0.8254 -0.3314 -1.2145
  302SOL    MW4 1213   0.872   1.970   0.853  0.3776 -0.0826 -0.1936
  303SOL     OW 1214   1.143   2.055   0.719 -0.1860 -0.3860 -0.0656
  303SOL    HW2 1215   1.144   2.141   0.762  0.7514 -1.0179  1.1755
  303SOL    HW3 1216   1.067   2.010   0.756 -0.3382 -0.3113 -0.2870
  303SOL    MW4 1217   1.133   2.061   0.729 -0.0824 -0.4599  0.0690
  304SOL     OW 1218   1.105   2.307   0.882  0.0734 -0.5804 -0.0057
  304SOL    HW2 1219   1.113   2.302   0.977 -0.9340  0.0356  0.1101
  304SOL    HW3 1220   1.175   2.365   0.855  0.9680 -1.5148  0.2638
  304SOL    MW4 1221   1.115   2.314   0.891  0.0584 -0.6223  0.0452
  305SOL     OW 1222   0.904   2.439   0.720 -0.0528  0.1583  0.1291
  305SOL    HW2 1223   0.969   2.399   0.779 -0.2133 -0.1005  0.1306
  305SOL    HW3 1224   0.820   2.407   0.752 -0.1415  0.0405 -0.2286
  305SOL    MW4 1225   0.902   2.430   0.732 -0.0857  0.1087  0.0821
  306SOL     OW 1226   0.922   2.697   0.842 -0.1854 -0.2068  0.1828
  306SOL    HW2 1227   0.921   2.680   0.936 -0.8824  0.0587  0.2234
  306SOL    HW3 1228   0.900   2.612   0.803  0.9617 -0.5302  0.2262
  306SOL    MW4 1229   0.919   2.683   0.849 -0.1261 -0.2143  0.1940
  307SOL     OW 1230   1.159   2.766   0.696  0.3266  0.3505 -0.0198
  307SOL    HW2 1231   1.076   2.747   0.739 -0.0464  2.8123  0.4325
  307SOL    HW3 1232   1.145   2.744   0.604 -0.2188 -0.9627  0.3649
  307SOL    MW4 1233   1.146   2.760   0.690  0.2055  0.5019  0.0907
  308SOL     OW 1234   1.154   3.037   0.816  0.1581  0.7580 -0.7214
  308SOL    HW2 1235   1.073   3.083   0.796 -0.9016 -0.4486  0.6545
  308SOL    HW3 1236   1.150   2.956   0.765  0.5042  0.6924 -0.6501
  308SOL    MW4 1237   1.143   3.032   0.807  0.0640  0.5903 -0.5305
  309SOL     OW 1238   0.932   3.214   0.764  0.2665 -0.2183 -0.1098
  309SOL    HW2 1239   0.934   3.307   0.787 -2.1300  0.4071 -2.1616
  309SOL    HW3 1240   0.841   3.188   0.777  0.9435 -2.3559  0.6266
  309SOL    MW4 1241   0.920   3.223   0.769  0.0398 -0.4179 -0.2834
  310SOL     OW 1242   0.912   3.485   0.840  0.3096 -0.3601 -0.2574
  310SOL    HW2 1243   0.970   3.548   0.796  1.4588 -0.8136  0.6007
  310SOL    HW3 1244   0.825   3.523   0.831  0.8125  0.6251 -1.0462
  310SOL    MW4 1245   0.908   3.499   0.833  0.5276 -0.2899 -0.2483
  311SOL     OW 1246   1.107   3.634   0.719  0.2278  0.3323 -0.1063
  311SOL    HW2 1247   1.185   3.593   0.756  0.3051  0.2351 -0.3810
  311SOL    HW3 1248   1.109   3.611   0.626 -0.1194  0.3400 -0.1166
  311SOL    MW4 1249   1.117   3.625   0.712  0.1922  0.3207 -0.1438
  312SOL     OW 1250   1.124   3.888   0.832 -0.2581  0.4571 -0.0151
  312SOL    HW2 1251   1.129   3.874   0.926 -0.1304 -0.0088 -0.0944
  312SOL    HW3 1252   1.118   3.801   0.794 -0.0263  0.6304 -0.4584
  312SOL    MW4 1253   1.124   3.875   0.839 -0.2108  0.4184 -0.0840
  313SOL     OW 1254   0.879   4.006   0.755 -0.1472 -0.1474  0.0628
  313SOL    HW2 1255   0.877   4.092   0.797 -0.8781  0.0661 -0.4040
  313SOL    HW3 1256   0.955   3.962   0.793  0.2374  0.7136  0.2808
  313SOL    MW4 1257   0.889   4.011   0.766 -0.1928 -0.0052  0.0299
  314SOL     OW 1258   0.895   4.257   0.873  0.2396 -0.1463  0.2764
  314SOL    HW2 1259   0.980   4.300   0.861  0.3324 -0.2160  0.6729
  314SOL    HW3 1260   0.833   4.315   0.830  0.2918  0.6729  1.2810
  314SOL    MW4 1261   0.898   4.270   0.865  0.2587 -0.0472  0.4612
  315SOL     OW 1262   1.117   4.418   0.815  0.3504 -0.0571 -0.1226
  315SOL    HW2 1263   1.200   4.377   0.839  0.0478 -0.1370  0.7934
  315SOL    HW3 1264   1.127   4.509   0.844 -0.2070 -0.2764  0.7644
  315SOL    MW4 1265   1.129   4.425   0.822  0.2370 -0.0968  0.1152
  316SOL     OW 1266   1.595   0.041   0.859 -0.3758 -0.1890 -0.2680
  316SOL    HW2 1267   1.574   0.006   0.946 -1.2419 -0.5216 -0.6082
  316SOL    HW3 1268   1.515   0.084   0.831 -0.2611 -0.5385 -1.1332
  316SOL    MW4 1269   1.582   0.042   0.867 -0.4749 -0.2790 -0.4271
  317SOL     OW 1270   1.339   0.145   0.716 -0.9856 -0.1816 -0.1158
  317SOL    HW2 1271   1.343   0.239   0.736 -1.6056 -0.1015 -0.3592
  317SOL    HW3 1272   1.307   0.142   0.626  0.3357 -0.5880 -0.5754
  317SOL    MW4 1273   1.335   0.157   0.707 -0.8929 -0.2247 -0.2084
  318SOL     OW 1274   1.358   0.391   0.861  0.5742  0.2463  0.3269
  318SOL    HW2 1275   1.363   0.386   0.956  1.3569 -1.1739  0.2294
  318SOL    HW3 1276   1.436   0.440   0.835  0.2964  0.7409  0.4209
  318SOL    MW4 1277   1.369   0.397   0.870  0.6407  0.1242  0.3265
  319SOL     OW 1278   1.602   0.515   0.734 -0.3338 -0.1074 -0.1940
  319SOL    HW2 1279   1.592   0.608   0.757  0.4091  0.4490 -1.9921
  319SOL    HW3 1280   1.684   0.489   0.775 -0.7679 -0.1030  0.6894
  319SOL    MW4 1281   1.611   0.524   0.742 -0.2930 -0.0333 -0.3147
  320SOL     OW 1282   1.558   0.789   0.824  0.0561  0.1154  0.1542
  320SOL    HW2 1283   1.634   0.832   0.786  0.2910 -1.1214 -0.8137
  320SOL    HW3 1284   1.483   0.836   0.788  0.3477  0.8106  0.4564
  320SOL    MW4 1285   1.558   0.801   0.814  0.1256  0.0440  0.0664
  321SOL     OW 1286   1.361   0.951   0.721 -0.3680 -0.3324 -0.4672
  321SOL    HW2 1287   1.367   1.023   0.784 -0.6887 -0.7689  0.0544
  321SOL    HW3 1288   1.285   0.901   0.748  0.3669 -1.3718 -0.3128
  321SOL    MW4 1289   1.352   0.954   0.733 -0.3134 -0.5271 -0.3780
  322SOL     OW 1290   1.342   1.184   0.860  0.3113 -0.0677  0.0533
  322SOL    HW2 1291   1.426   1.218   0.830 -0.3678  1.0038 -0.6900
  322SOL    HW3 1292   1.277   1.233   0.809 -0.7931 -0.1005  1.4035
  322SOL    MW4 1293   1.344   1.195   0.849  0.0761  0.0694  0.1334
  323SOL     OW 1294   1.562   1.293   0.725 -0.0780  0.4092  0.2426
  323SOL    HW2 1295   1.584   1.380   0.756  1.9189  0.7612 -1.9515
  323SOL    HW3 1296   1.544   1.305   0.631  2.1942 -1.7705 -0.5447
  323SOL    MW4 1297   1.563   1.306   0.716  0.4852  0.1682 -0.1507
  324SOL     OW 1298   1.575   1.563   0.805  0.0793 -0.7754  0.0932
  324SOL    HW2 1299   1.562   1.568   0.900  0.1254  0.2268  0.0503
  324SOL    HW3 1300   1.491   1.590   0.767  0.2320 -0.6450 -0.1539
  324SOL    MW4 1301   1.562   1.567   0.812  0.1055 -0.6260  0.0550
  325SOL     OW 1302   1.331   1.644   0.721  0.0248  0.0803 -0.2727
  325SOL    HW2 1303   1.319   1.736   0.744 -0.5050  0.0635 -0.4665
  325SOL    HW3 1304   1.285   1.596   0.790  1.9784 -0.1174  0.9408
  325SOL    MW4 1305   1.323   1.650   0.733  0.2127  0.0520 -0.1381
  326SOL     OW 1306   1.344   1.898   0.811  0.5826  0.2491  0.1215
  326SOL    HW2 1307   1.329   1.891   0.905  0.6824 -2.2176 -0.0113
  326SOL    HW3 1308   1.272   1.953   0.779  1.1589  1.9762  1.7777
  326SOL    MW4 1309   1.332   1.904   0.819  0.6717  0.1515  0.3225
  327SOL     OW 1310   1.557   2.055   0.762 -0.5632  0.2040 -0.3041
  327SOL    HW2 1311   1.481   2.002   0.788 -0.8493  0.3036 -0.9247
  327SOL    HW3 1312   1.557   2.051   0.666  0.6779 -0.4482 -0.2901
  327SOL    MW4 1313   1.547   2.047   0.753 -0.4371  0.1309 -0.3842
  328SOL     OW 1314   1.535   2.312   0.872  0.2705 -0.1098  0.4176
  328SOL    HW2 1315   1.466   2.360   0.828 -1.7466 -1.0271  2.4331
  328SOL    HW3 1316   1.525   2.222   0.840  0.2857 -0.3105  0.9707
  328SOL    MW4 1317   1.524   2.306   0.862  0.0063 -0.2573  0.7566
  329SOL     OW 1318   1.315   2.445   0.780  0.0402  0.3015 -0.1094
  329SOL    HW2 1319   1.342   2.533   0.805 -1.6966  1.5038 -2.2350
  329SOL    HW3 1320   1.305   2.449   0.685 -1.7728 -1.6850 -0.0435
  329SOL    MW4 1321   1.317   2.457   0.771 -0.4282  0.1981 -0.3812
  330SOL     OW 1322   1.387   2.719   0.853  0.5907 -0.3907  0.2121
  330SOL    HW2 1323   1.357   2.728   0.944  1.5794 -2.4997  0.7786
  330SOL    HW3 1324   1.314   2.752   0.801 -0.3071  0.1168  1.7438
  330SOL    MW4 1325   1.373   2.725   0.858  0.6027 -0.6020  0.4891
  331SOL     OW 1326   1.586   2.822   0.706 -0.2431 -0.1012  0.4889
  331SOL    HW2 1327   1.588   2.912   0.738 -0.1648  0.0979 -0.0657
  331SOL    HW3 1328   1.523   2.777   0.762 -1.4290  0.6723 -0.2176
  331SOL    MW4 1329   1.578   2.828   0.717 -0.3892  0.0272  0.3225
  332SOL     OW 1330   1.569   3.076   0.797 -0.9325  0.0855 -0.6904
  332SOL    HW2 1331   1.571   3.080   0.892  1.2602 -0.3790 -0.6925
  332SOL    HW3 1332   1.484   3.114   0.773 -1.7416 -0.3181  1.4506
  332SOL    MW4 1333   1.558   3.081   0.806 -0.7498 -0.0286 -0.4082
  333SOL     OW 1334   1.338   3.223   0.749 -0.2150 -0.4840 -0.2569
  333SOL    HW2 1335   1.268   3.169   0.786 -0.6034 -1.6029 -2.5453
  333SOL    HW3 1336   1.323   3.221   0.655  1.5457  1.1854 -0.6066
  333SOL    MW4 1337   1.327   3.215   0.742 -0.0340 -0.4115 -0.6050
  334SOL     OW 1338   1.326   3.514   0.841  0.0363 -0.3068 -0.4472
  334SOL    HW2 1339   1.398   3.576   0.850  0.6005 -1.2154  1.8858
  334SOL    HW3 1340   1.364   3.440   0.793  0.0242  0.1778 -1.1974
  334SOL    MW4 1341   1.341   3.512   0.836  0.1092 -0.3626 -0.2384
  335SOL     OW 1342   1.552   3.666   0.830 -0.3042  0.4255 -0.1173
  335SOL    HW2 1343   1.620   3.610   0.868 -3.4099 -2.7075  1.1221
  335SOL    HW3 1344   1.571   3.666   0.736  2.1341  0.7180  0.3302
  335SOL    MW4 1345   1.564   3.659   0.822 -0.3923  0.0508  0.1053
  336SOL     OW 1346   1.543   3.927   0.906 -0.5779  0.0677  0.2571
  336SOL    HW2 1347   1.459   3.952   0.866 -1.7206  1.3308  3.3109
  336SOL    HW3 1348   1.557   3.837   0.877 -0.9642  1.1107 -3.5139
  336SOL    MW4 1349   1.534   3.918   0.897 -0.7796  0.3722  0.1624
  337SOL     OW 1350   1.326   4.057   0.725  0.0238 -0.3551 -0.2737
  337SOL    HW2 1351   1.241   4.020   0.749  0.9274 -1.2773  1.6317
  337SOL    HW3 1352   1.326   4.057   0.629 -1.4645 -1.8894 -0.2989
  337SOL    MW4 1353   1.315   4.052   0.715 -0.0533 -0.6790 -0.0256
  338SOL     OW 1354   1.371   4.280   0.868 -0.2296 -0.0205 -0.1815
  338SOL    HW2 1355   1.457   4.303   0.832  0.0728 -0.5621  0.1733
  338SOL    HW3 1356   1.348   4.198   0.824  0.5325 -1.1326  1.4563
  338SOL    MW4 1357   1.380   4.272   0.857 -0.0892 -0.2389  0.0814
  339SOL     OW 1358   1.587   4.460   0.742 -0.3415  0.3505 -0.4240
  339SOL    HW2 1359   1.653   4.410   0.790 -0.5920  0.3458 -0.0827
  339SOL    HW3 1360   1.593   4.549   0.776 -0.3676  0.3972 -0.5412
  339SOL    MW4 1361   1.596   4.465   0.753 -0.3780  0.3562 -0.3944
  340SOL     OW 1362   2.044   0.014   0.887  0.3415  0.4926 -0.4432
  340SOL    HW2 1363   2.138   0.030   0.893  0.2844  0.6259  0.1363
  340SOL    HW3 1364   2.037  -0.077   0.857  0.6689  1.3190 -3.2027
  340SOL    MW4 1365   2.056   0.004   0.883  0.3774  0.6192 -0.7309
  341SOL     OW 1366   1.835   0.140   0.742 -0.0358  0.0563  0.2829
  341SOL    HW2 1367   1.913   0.107   0.786  0.0514 -0.6166 -0.3755
  341SOL    HW3 1368   1.763   0.089   0.778  0.0484 -0.5664 -0.4357
  341SOL    MW4 1369   1.836   0.129   0.753 -0.0132 -0.1146  0.1013
  342SOL     OW 1370   1.858   0.402   0.835  0.1632 -0.2187 -0.3420
  342SOL    HW2 1371   1.866   0.322   0.783  1.6919 -0.7595  0.7209
  342SOL    HW3 1372   1.936   0.453   0.813 -0.5348  0.7566 -0.6009
  342SOL    MW4 1373   1.869   0.398   0.825  0.2729 -0.1613 -0.2360
  343SOL     OW 1374   2.079   0.525   0.733 -0.0424  0.0763 -0.0423
  343SOL    HW2 1375   2.158   0.491   0.775 -0.2265  1.0858  1.1392
  343SOL    HW3 1376   2.083   0.490   0.643  0.5415 -1.7684  0.6745
  343SOL    MW4 1377   2.090   0.516   0.726  0.0103 -0.0339  0.2081
  344SOL     OW 1378   2.036   0.794   0.825 -0.3820  0.3312  0.0062
  344SOL    HW2 1379   2.104   0.854   0.796 -1.0218  0.9213 -0.2715
  344SOL    HW3 1380   2.059   0.710   0.784  0.1629  0.5308 -0.0976
  344SOL    MW4 1381   2.048   0.791   0.816 -0.3948  0.4355 -0.0442
  345SOL     OW 1382   1.799   0.908   0.737 -0.4668 -0.4054 -0.0491
  345SOL    HW2 1383   1.814   0.999   0.762 -0.8572 -0.5583  0.7301
  345SOL    HW3 1384   1.875   0.861   0.770 -0.7251 -0.5174  0.3937
  345SOL    MW4 1385   1.811   0.914   0.744 -0.5524 -0.4403  0.1121
  346SOL     OW 1386   1.800   1.178   0.854  0.1840 -0.5740 -0.0058
  346SOL    HW2 1387   1.876   1.218   0.813  0.2019 -1.4559 -0.8610
  346SOL    HW3 1388   1.725   1.218   0.809  0.1855 -0.9101 -0.3131
  346SOL    MW4 1389   1.800   1.189   0.843  0.1866 -0.7347 -0.1592
  347SOL     OW 1390   1.997   1.317   0.734  0.0097  0.4762 -0.2753
  347SOL    HW2 1391   2.080   1.278   0.762 -0.5045 -0.6337 -0.2686
  347SOL    HW3 1392   1.982   1.283   0.646 -0.3369  0.8271 -0.3553
  347SOL    MW4 1393   2.006   1.308   0.726 -0.1040  0.3760 -0.2849
  348SOL     OW 1394   2.017   1.545   0.886 -0.0977  0.8762  0.2247
  348SOL    HW2 1395   2.098   1.581   0.850  0.4123  0.1889  0.6912
  348SOL    HW3 1396   2.002   1.464   0.837  0.7898 -0.2573  1.7707
  348SOL    MW4 1397   2.026   1.539   0.875  0.0865  0.6360  0.4901
  349SOL     OW 1398   1.796   1.696   0.749  0.6731  0.3902  0.1131
  349SOL    HW2 1399   1.854   1.636   0.794  0.7981  0.6396  0.2842
  349SOL    HW3 1400   1.709   1.656   0.757  0.9239 -0.3307 -0.7452
  349SOL    MW4 1401   1.792   1.683   0.756  0.7225  0.3278  0.0224
  350SOL     OW 1402   1.814   1.964   0.815 -0.5164 -0.0298  0.1414
  350SOL    HW2 1403   1.811   1.873   0.786  0.4469  0.2287 -0.8415
  350SOL    HW3 1404   1.724   1.996   0.806 -0.7383 -0.7216 -0.0687
  350SOL    MW4 1405   1.802   1.956   0.810 -0.4185 -0.0869 -0.0160
  351SOL     OW 1406   2.047   2.074   0.721 -0.1559 -0.1027 -0.1259
  351SOL    HW2 1407   2.040   2.160   0.761  1.6412 -0.4061  0.9373
  351SOL    HW3 1408   1.965   2.030   0.743 -0.0397  0.4604  1.5019
  351SOL    MW4 1409   2.036   2.079   0.729  0.0966 -0.0687  0.2292
  352SOL     OW 1410   1.998   2.325   0.857  0.0894  0.0558  0.1250
  352SOL    HW2 1411   1.979   2.312   0.950 -0.0182 -2.9102 -0.2838
  352SOL    HW3 1412   1.912   2.341   0.818  0.0425  0.4724  0.3909
  352SOL    MW4 1413   1.984   2.326   0.864  0.0690 -0.2811  0.1062
  353SOL     OW 1414   1.749   2.409   0.724  0.7555 -0.3288 -0.2101
  353SOL    HW2 1415   1.666   2.376   0.758  2.2998 -2.9213  1.2206
  353SOL    HW3 1416   1.733   2.421   0.630 -0.6520 -2.8735 -0.3648
  353SOL    MW4 1417   1.736   2.406   0.716  0.7735 -1.0064 -0.0418
  354SOL     OW 1418   1.801   2.666   0.832  0.2035 -0.4229 -0.4112
  354SOL    HW2 1419   1.800   2.574   0.806  0.0386 -0.6626  0.4173
  354SOL    HW3 1420   1.732   2.707   0.780 -1.4526 -1.2925  1.0456
  354SOL    MW4 1421   1.792   2.659   0.822 -0.0366 -0.5691 -0.1096
  355SOL     OW 1422   1.984   2.817   0.688 -0.1981  0.0686  0.2448
  355SOL    HW2 1423   2.075   2.799   0.713 -0.0816 -1.5028 -1.2151
  355SOL    HW3 1424   1.932   2.769   0.753 -0.0060  1.2436  1.2847
  355SOL    MW4 1425   1.989   2.808   0.700 -0.1574  0.0162  0.1894
  356SOL     OW 1426   1.990   3.043   0.869 -0.0061  0.2367 -0.1942
  356SOL    HW2 1427   1.911   3.095   0.854  0.1126  0.4711 -0.0017
  356SOL    HW3 1428   1.973   2.960   0.824 -0.2971  0.3469 -0.2865
  356SOL    MW4 1429   1.977   3.039   0.861 -0.0288  0.2818 -0.1810
  357SOL     OW 1430   1.821   3.259   0.764  0.2926  0.3184  0.1644
  357SOL    HW2 1431   1.733   3.223   0.748  0.5277 -0.2547  0.1260
  357SOL    HW3 1432   1.865   3.250   0.679  0.5942  0.0046  0.3526
  357SOL    MW4 1433   1.815   3.253   0.750  0.3635  0.2012  0.1841
  358SOL     OW 1434   1.768   3.496   0.889 -0.4568 -0.4925  0.2597
  358SOL    HW2 1435   1.757   3.479   0.982  2.3061 -1.3535  0.4819
  358SOL    HW3 1436   1.787   3.410   0.851 -0.2894  0.0434 -0.9147
  358SOL    MW4 1437   1.769   3.482   0.896 -0.0702 -0.5352  0.1341
  359SOL     OW 1438   1.977   3.641   0.764  0.0810 -0.0597 -0.2296
  359SOL    HW2 1439   1.960   3.730   0.794  0.1123  0.1595 -0.8646
  359SOL    HW3 1440   1.901   3.591   0.792 -0.2160  0.2923 -0.4058
  359SOL    MW4 1441   1.965   3.646   0.772  0.0459  0.0157 -0.3366
  360SOL     OW 1442   1.964   3.898   0.846  0.4169 -0.0774 -0.0142
  360SOL    HW2 1443   1.978   3.915   0.940 -0.0948  0.4366 -0.0266
  360SOL    HW3 1444   1.886   3.948   0.825  0.6151 -0.0846 -0.7567
  360SOL    MW4 1445   1.956   3.907   0.856  0.3757 -0.0107 -0.1138
  361SOL     OW 1446   1.754   4.054   0.781 -0.0502 -0.1319  0.1228
  361SOL    HW2 1447   1.669   4.014   0.800 -0.6410  1.1182  0.1604
  361SOL    HW3 1448   1.755   4.063   0.686  0.5573 -1.2565  0.0161
  361SOL    MW4 1449   1.743   4.050   0.771 -0.0480 -0.1149  0.1137
  362SOL     OW 1450   1.777   4.316   0.878 -0.1813 -0.0942 -0.2544
  362SOL    HW2 1451   1.764   4.301   0.971 -0.9714 -1.1641 -0.5218
  362SOL    HW3 1452   1.759   4.231   0.837  1.6769 -0.0376 -1.2458
  362SOL    MW4 1453   1.773   4.303   0.885 -0.0405 -0.2279 -0.4206
  363SOL     OW 1454   2.023   4.402   0.794 -0.4951  0.4402  0.0258
  363SOL    HW2 1455   1.939   4.366   0.821 -0.0935 -0.1545  0.4955
  363SOL    HW3 1456   2.010   4.428   0.703 -0.7348 -1.0733 -0.3903
  363SOL    MW4 1457   2.010   4.401   0.786 -0.4737  0.1621  0.0328
  364SOL     OW 1458   2.559   4.583   0.840  0.2921 -0.2051 -0.2278
  364SOL    HW2 1459   2.598   4.581   0.928  1.8363  0.5024 -0.8750
  364SOL    HW3 1460   2.539   4.492   0.820  1.9327 -0.6306  0.0061
  364SOL    MW4 1461   2.562   4.571   0.849  0.7122 -0.1678 -0.2823
  365SOL     OW 1462   2.320   0.088   0.871 -0.1779  0.0494 -0.0675
  365SOL    HW2 1463   2.394   0.032   0.894 -0.6293 -0.5479 -0.0536
  365SOL    HW3 1464   2.295   0.058   0.783 -0.1022  0.5731 -0.2705
  365SOL    MW4 1465   2.326   0.076   0.862 -0.2275  0.0397 -0.0924
  366SOL     OW 1466   2.271   0.369   0.877  0.7779  0.1264  0.3136
  366SOL    HW2 1467   2.349   0.408   0.837  1.3869  0.2156  1.5502
  366SOL    HW3 1468   2.289   0.275   0.878 -0.0870 -0.0589 -1.4022
  366SOL    MW4 1469   2.284   0.362   0.872  0.7441  0.1137  0.2503
  367SOL     OW 1470   2.461   0.495   0.721  0.4103  0.1844 -0.0788
  367SOL    HW2 1471   2.553   0.471   0.736  0.5073 -0.6758 -1.9067
  367SOL    HW3 1472   2.449   0.485   0.627 -1.4647  0.6921  0.0872
  367SOL    MW4 1473   2.472   0.491   0.711  0.1755  0.1379 -0.2981
  368SOL     OW 1474   2.447   0.788   0.813  0.2208  0.1473  0.4038
  368SOL    HW2 1475   2.541   0.802   0.810  0.2979 -0.2188  1.1481
  368SOL    HW3 1476   2.435   0.698   0.783  0.1929 -0.1669  1.3633
  368SOL    MW4 1477   2.457   0.778   0.809  0.2272  0.0576  0.6287
  369SOL     OW 1478   2.244   0.941   0.735 -0.2437 -0.4561 -0.4453
  369SOL    HW2 1479   2.323   0.901   0.771 -0.3200 -0.1591  0.0494
  369SOL    HW3 1480   2.244   0.914   0.643 -1.2439 -3.0495  0.2854
  369SOL    MW4 1481   2.255   0.932   0.727 -0.3855 -0.7591 -0.2837
  370SOL     OW 1482   2.209   1.192   0.833 -0.2987 -0.0510 -0.6449
  370SOL    HW2 1483   2.215   1.180   0.928  0.7448 -1.4812 -0.8856
  370SOL    HW3 1484   2.222   1.105   0.796  0.0061  0.6031 -2.1369
  370SOL    MW4 1485   2.212   1.179   0.841 -0.1209 -0.1534 -0.8734
  371SOL     OW 1486   2.469   1.233   0.725 -0.1057 -0.0479 -0.5054
  371SOL    HW2 1487   2.382   1.223   0.764 -0.0785 -1.4487 -0.7858
  371SOL    HW3 1488   2.465   1.182   0.644  1.4203 -1.2862  0.1902
  371SOL    MW4 1489   2.457   1.225   0.719  0.0994 -0.3961 -0.4507
  372SOL     OW 1490   2.457   1.537   0.783 -0.3700 -0.6408 -0.4618
  372SOL    HW2 1491   2.538   1.584   0.764 -0.4838 -0.4727 -0.5340
  372SOL    HW3 1492   2.472   1.449   0.750  0.0576 -0.8164  0.1833
  372SOL    MW4 1493   2.470   1.532   0.776 -0.3285 -0.6418 -0.3863
  373SOL     OW 1494   2.222   1.678   0.740 -0.8432 -0.8348 -0.3087
  373SOL    HW2 1495   2.308   1.637   0.733 -1.5275 -2.0963 -1.8018
  373SOL    HW3 1496   2.191   1.685   0.649 -1.7781  0.7746  0.1108
  373SOL    MW4 1497   2.229   1.673   0.727 -1.0569 -0.7889 -0.4503
  374SOL     OW 1498   2.253   1.932   0.832  0.0257  0.2610  0.3602
  374SOL    HW2 1499   2.242   1.840   0.810  0.3607  0.1829  0.5277
  374SOL    HW3 1500   2.185   1.977   0.781  0.1766 -0.0253 -0.0903
  374SOL    MW4 1501   2.243   1.926   0.822  0.0899  0.2130  0.3229
  375SOL     OW 1502   2.479   2.084   0.761  0.2299 -0.1470  0.6989
  375SOL    HW2 1503   2.414   2.017   0.784  0.9492 -0.5919  1.4732
  375SOL    HW3 1504   2.466   2.100   0.668 -1.0271 -0.2030  0.8592
  375SOL    MW4 1505   2.469   2.077   0.752  0.1590 -0.2131  0.8222
  376SOL     OW 1506   2.472   2.325   0.890  0.3029 -0.2106 -0.0639
  376SOL    HW2 1507   2.534   2.382   0.844 -0.2292  0.1754 -0.3146
  376SOL    HW3 1508   2.480   2.240   0.845  0.5164 -0.1122 -0.2140
  376SOL    MW4 1509   2.481   2.321   0.878  0.2608 -0.1469 -0.1169
  377SOL     OW 1510   2.237   2.463   0.782 -0.3520  0.4617  0.1422
  377SOL    HW2 1511   2.308   2.422   0.832 -1.2898 -1.2241  0.1322
  377SOL    HW3 1512   2.158   2.421   0.815 -1.0554 -0.2116 -2.2814
  377SOL    MW4 1513   2.236   2.452   0.793 -0.5684  0.1504 -0.1789
  378SOL     OW 1514   2.210   2.737   0.834 -0.1324  0.8228 -0.0722
  378SOL    HW2 1515   2.222   2.743   0.929 -0.8624  1.7739 -0.0338
  378SOL    HW3 1516   2.206   2.643   0.817 -0.8593  0.6484  0.9595
  378SOL    MW4 1517   2.211   2.725   0.845 -0.3247  0.9253  0.0690
  379SOL     OW 1518   2.457   2.843   0.724  0.1228  0.3445  0.6059
  379SOL    HW2 1519   2.523   2.811   0.786  0.5375  0.0109 -0.0024
  379SOL    HW3 1520   2.376   2.800   0.751 -0.4371  2.7632  2.9885
  379SOL    MW4 1521   2.455   2.833   0.736  0.1037  0.6194  0.8399
  380SOL     OW 1522   2.415   3.107   0.854  0.3401  0.2441 -0.1035
  380SOL    HW2 1523   2.422   3.089   0.948  2.5083  0.2809 -0.2417
  380SOL    HW3 1524   2.428   3.022   0.812 -2.6835 -0.1702 -0.3611
  380SOL    MW4 1525   2.418   3.093   0.861  0.2275  0.1943 -0.1557
  381SOL     OW 1526   2.184   3.234   0.750  0.0531  0.3268 -0.0807
  381SOL    HW2 1527   2.119   3.177   0.792 -0.1325  0.3385 -0.3566
  381SOL    HW3 1528   2.269   3.195   0.775 -0.0376  0.7106  0.8501
  381SOL    MW4 1529   2.187   3.221   0.759  0.0167  0.3791  0.0057
  382SOL     OW 1530   2.211   3.502   0.834  0.1860 -0.0536 -0.7388
  382SOL    HW2 1531   2.201   3.412   0.805 -1.1690 -0.6706  1.5544
  382SOL    HW3 1532   2.124   3.541   0.820  0.3172  0.4352 -0.2034
  382SOL    MW4 1533   2.198   3.496   0.828  0.0246 -0.0703 -0.3656
  383SOL     OW 1534   2.429   3.647   0.701  0.1521  0.1562 -0.1394
  383SOL    HW2 1535   2.512   3.604   0.723 -0.3070 -0.9054 -0.4710
  383SOL    HW3 1536   2.362   3.592   0.739 -0.4436  0.6126 -0.5241
  383SOL    MW4 1537   2.431   3.634   0.709  0.0129  0.0765 -0.2339
  384SOL     OW 1538   2.432   3.882   0.874 -0.5833 -0.1903 -0.1673
  384SOL    HW2 1539   2.360   3.932   0.834 -0.3567  0.2009 -0.0824
  384SOL    HW3 1540   2.427   3.797   0.831 -0.0359  0.3799 -1.4048
  384SOL    MW4 1541   2.422   3.878   0.863 -0.4811 -0.0637 -0.3194
  385SOL     OW 1542   2.182   4.010   0.733  0.4737 -0.2379 -0.0447
  385SOL    HW2 1543   2.104   3.963   0.762 -0.3511  1.3771  0.4660
  385SOL    HW3 1544   2.170   4.023   0.639  0.0804  0.0593  0.0441
  385SOL    MW4 1545   2.170   4.006   0.725  0.3130  0.0148  0.0344
  386SOL     OW 1546   2.240   4.268   0.859  0.1658 -0.3445  0.1357
  386SOL    HW2 1547   2.219   4.185   0.816 -1.3074 -1.4768  2.8761
  386SOL    HW3 1548   2.174   4.329   0.827 -0.1165 -0.8349 -0.2135
  386SOL    MW4 1549   2.228   4.265   0.849 -0.0656 -0.5593  0.4511
  387SOL     OW 1550   2.452   4.369   0.688 -0.3762  0.1022 -0.4575
  387SOL    HW2 1551   2.534   4.323   0.704  1.0547  1.6723 -2.7666
  387SOL    HW3 1552   2.390   4.333   0.751  1.2370 -3.3685 -0.7554
  387SOL    MW4 1553   2.455   4.358   0.698  0.0255 -0.1488 -0.8015
  388SOL     OW 1554   2.898   0.016   0.784  0.0423  0.4210  0.0959
  388SOL    HW2 1555   2.903  -0.072   0.747 -0.9734  0.0832  0.7425
  388SOL    HW3 1556   2.845   0.066   0.721  0.9828  0.6939 -0.4897
  388SOL    MW4 1557   2.891   0.011   0.770  0.0322  0.4125  0.1040
  389SOL     OW 1558   2.570   4.651   0.548  0.3109  0.7234 -0.5446
  389SOL    HW2 1559   2.637   4.719   0.557 -0.0010  0.7521  2.0206
  389SOL    HW3 1560   2.559   4.617   0.637  0.0113 -2.2689 -1.6873
  389SOL    MW4 1561   2.578   4.655   0.561  0.2301  0.3324 -0.3569
  390SOL     OW 1562   2.717   0.369   0.820  0.0607  0.5198  0.2088
  390SOL    HW2 1563   2.725   0.355   0.915  1.1854 -1.3257 -0.1269
  390SOL    HW3 1564   2.789   0.428   0.799 -1.1182  2.1848  0.7184
  390SOL    MW4 1565   2.728   0.375   0.830  0.0536  0.4960  0.2317
  391SOL     OW 1566   2.944   0.493   0.755  0.0648  0.4618 -0.0852
  391SOL    HW2 1567   3.012   0.430   0.780 -0.2798  0.4558  0.8534
  391SOL    HW3 1568   2.923   0.471   0.664  0.8231  0.0171 -0.1540
  391SOL    MW4 1569   2.950   0.482   0.746  0.1194  0.4023  0.0296
  392SOL     OW 1570   3.027   0.743   0.789 -0.3029  0.4571  0.0337
  392SOL    HW2 1571   2.987   0.766   0.872 -4.8153  1.9531 -2.3754
  392SOL    HW3 1572   3.003   0.651   0.776  1.5301 -0.1653  0.9548
  392SOL    MW4 1573   3.018   0.734   0.798 -0.6564  0.5723 -0.1627
  393SOL     OW 1574   2.697   0.892   0.775  0.2563 -0.1511  0.0299
  393SOL    HW2 1575   2.778   0.842   0.785  0.0714 -0.4735 -0.0697
  393SOL    HW3 1576   2.696   0.917   0.683  0.5934  0.4602  0.1895
  393SOL    MW4 1577   2.708   0.888   0.764  0.2768 -0.1130  0.0378
  394SOL     OW 1578   2.672   1.140   0.895  0.2684 -0.0654  0.6923
  394SOL    HW2 1579   2.673   1.048   0.868 -0.2199 -0.1989  1.1151
  394SOL    HW3 1580   2.624   1.185   0.825  0.3851 -0.1572  0.5542
  394SOL    MW4 1581   2.666   1.134   0.882  0.2193 -0.0951  0.7299
  395SOL     OW 1582   2.878   1.253   0.770 -0.0368 -0.1897 -0.1645
  395SOL    HW2 1583   2.956   1.218   0.813  1.2346  1.3358 -1.1646
  395SOL    HW3 1584   2.805   1.215   0.818  1.3194 -1.8575  0.6207
  395SOL    MW4 1585   2.879   1.244   0.782  0.3099 -0.2086 -0.1928
  396SOL     OW 1586   2.915   1.540   0.825  0.2939  0.0357  0.1079
  396SOL    HW2 1587   2.998   1.572   0.789  0.4035 -0.2380  0.1150
  396SOL    HW3 1588   2.908   1.450   0.793 -0.3641  0.3039 -0.5075
  396SOL    MW4 1589   2.925   1.532   0.816  0.2213  0.0349  0.0277
  397SOL     OW 1590   2.689   1.686   0.734  0.5104  0.4306  0.0658
  397SOL    HW2 1591   2.690   1.766   0.787  1.2777  0.4302  0.0713
  397SOL    HW3 1592   2.768   1.640   0.762  0.3775 -0.0496 -0.3630
  397SOL    MW4 1593   2.700   1.691   0.745  0.5937  0.3673  0.0100
  398SOL     OW 1594   2.713   1.950   0.814 -0.4446  0.3608 -0.0965
  398SOL    HW2 1595   2.719   1.955   0.910 -0.0587  0.9203 -0.1482
  398SOL    HW3 1596   2.631   1.994   0.793 -0.3799  0.5121 -0.0403
  398SOL    MW4 1597   2.703   1.957   0.824 -0.3855  0.4548 -0.0958
  399SOL     OW 1598   2.881   2.099   0.640 -0.0633  0.8287  0.4854
  399SOL    HW2 1599   2.882   2.176   0.697  0.9653  0.6171  0.7666
  399SOL    HW3 1600   2.836   2.032   0.692  2.2742  0.1630  1.6994
  399SOL    MW4 1601   2.875   2.101   0.654  0.3805  0.7131  0.6827
  400SOL     OW 1602   2.867   2.342   0.774 -0.2848  0.6634 -0.0925
  400SOL    HW2 1603   2.886   2.331   0.867  0.0459  1.4587 -0.0665
  400SOL    HW3 1604   2.781   2.382   0.771 -0.3563  0.5081 -0.1353
  400SOL    MW4 1605   2.858   2.346   0.786 -0.2506  0.7477 -0.0947
  401SOL     OW 1606   2.645   2.503   0.751 -0.0623 -0.3451 -0.4477
  401SOL    HW2 1607   2.644   2.522   0.657  1.3686  0.8151 -0.2380
  401SOL    HW3 1608   2.667   2.587   0.792  1.1974 -1.2758  0.8037
  401SOL    MW4 1609   2.648   2.517   0.744  0.2928 -0.3150 -0.2550
  402SOL     OW 1610   2.681   2.757   0.873  0.2509  0.0623 -0.7530
  402SOL    HW2 1611   2.688   2.742   0.968  0.8604 -1.0580 -0.9631
  402SOL    HW3 1612   2.769   2.782   0.847  0.5954 -1.6962 -1.3567
  402SOL    MW4 1613   2.693   2.758   0.882  0.3769 -0.3176 -0.8604
  403SOL     OW 1614   2.824   2.912   0.566  0.3118  0.2267  0.0291
  403SOL    HW2 1615   2.758   2.859   0.522  0.7482  0.3565 -0.7938
  403SOL    HW3 1616   2.786   3.000   0.570 -0.5204 -0.1943  1.6248
  403SOL    MW4 1617   2.810   2.916   0.561  0.2596  0.1884  0.1310
  404SOL     OW 1618   2.923   3.126   0.930 -0.2302 -0.3235  0.5150
  404SOL    HW2 1619   2.829   3.139   0.913 -0.1947  0.3639  0.8026
  404SOL    HW3 1620   2.945   3.044   0.886 -0.2978  1.0127 -2.0898
  404SOL    MW4 1621   2.913   3.117   0.922 -0.2346 -0.0570  0.2092
  405SOL     OW 1622   2.677   3.209   0.850  0.4051 -0.0040 -0.3713
  405SOL    HW2 1623   2.654   3.301   0.836 -0.8627 -0.2151  0.2762
  405SOL    HW3 1624   2.593   3.163   0.845  0.7990 -0.9018  1.0965
  405SOL    MW4 1625   2.663   3.215   0.847  0.2897 -0.1504 -0.0923
  406SOL     OW 1626   2.624   3.480   0.817  0.0562  0.8406  0.0350
  406SOL    HW2 1627   2.633   3.484   0.913 -0.5472 -0.0538  0.1330
  406SOL    HW3 1628   2.711   3.505   0.784  0.3952  0.7206  0.8219
  406SOL    MW4 1629   2.637   3.484   0.826  0.0212  0.7064  0.1518
  407SOL     OW 1630   2.870   3.568   0.766 -0.2519  0.1469 -0.0278
  407SOL    HW2 1631   2.876   3.655   0.807  0.1479 -1.0370  2.4968
  407SOL    HW3 1632   2.901   3.582   0.676  1.1912  2.3098  0.7701
  407SOL    MW4 1633   2.875   3.582   0.759 -0.0088  0.2761  0.4106
  408SOL     OW 1634   2.910   3.843   0.846  0.5979 -0.1001  0.3035
  408SOL    HW2 1635   2.920   3.838   0.941 -0.1499 -1.1530  0.3357
  408SOL    HW3 1636   2.828   3.892   0.833  0.7574  0.1392  0.1955
  408SOL    MW4 1637   2.900   3.849   0.857  0.5202 -0.2069  0.2936
  409SOL     OW 1638   2.675   3.993   0.773  0.1115  0.5571 -0.3617
  409SOL    HW2 1639   2.594   3.951   0.803  1.2079 -1.5258 -0.2664
  409SOL    HW3 1640   2.688   3.959   0.685  0.4248  1.5953 -0.7286
  409SOL    MW4 1641   2.666   3.983   0.765  0.2973  0.4191 -0.3976
  410SOL     OW 1642   2.684   4.256   0.803  0.3709 -0.2315  0.5474
  410SOL    HW2 1643   2.672   4.267   0.897  0.6422  0.1735  0.5338
  410SOL    HW3 1644   2.688   4.161   0.790 -1.0792 -0.3313  0.7617
  410SOL    MW4 1645   2.683   4.245   0.813  0.2151 -0.1912  0.5739
  411SOL     OW 1646   2.881   4.401   0.691 -0.5405  0.5981  0.3140
  411SOL    HW2 1647   2.958   4.348   0.714 -0.0738  0.7816 -0.8187
  411SOL    HW3 1648   2.807   4.353   0.729 -0.3457 -1.9204 -2.3541
  411SOL    MW4 1649   2.881   4.388   0.699 -0.4530  0.2899 -0.1875
  412SOL     OW 1650   3.337   4.582   0.848 -0.3329 -0.2548 -0.1144
  412SOL    HW2 1651   3.323   4.596   0.942 -1.4075 -3.1018  0.1801
  412SOL    HW3 1652   3.282   4.648   0.806  0.5010  1.3435  1.2181
  412SOL    MW4 1653   3.328   4.593   0.855 -0.3645 -0.4201  0.1001
  413SOL     OW 1654   3.168   0.093   0.725  0.2239 -0.0689  0.0947
  413SOL    HW2 1655   3.168   0.184   0.752  1.3889 -0.3337  1.0634
  413SOL    HW3 1656   3.078   0.063   0.739  0.4728  0.1971  2.3403
  413SOL    MW4 1657   3.156   0.101   0.730  0.4101 -0.0687  0.5188
  414SOL     OW 1658   3.186   0.370   0.822 -0.1039  0.3432 -0.4339
  414SOL    HW2 1659   3.196   0.389   0.915 -1.2858 -0.4946 -0.1216
  414SOL    HW3 1660   3.251   0.425   0.779  1.0070  0.1439  0.9486
  414SOL    MW4 1661   3.196   0.380   0.829 -0.1132  0.2064 -0.2103
  415SOL     OW 1662   3.367   0.532   0.691 -0.2053 -0.4023 -0.0254
  415SOL    HW2 1663   3.440   0.477   0.721 -0.1745 -0.2948  0.0941
  415SOL    HW3 1664   3.376   0.532   0.596  0.5591  0.4373  0.0342
  415SOL    MW4 1665   3.378   0.525   0.682 -0.1006 -0.2773 -0.0017
  416SOL     OW 1666   3.313   0.775   0.817  0.4066 -0.4701 -0.5317
  416SOL    HW2 1667   3.219   0.779   0.804  0.5569  0.7442 -1.3165
  416SOL    HW3 1668   3.340   0.693   0.776 -0.2614 -0.6664 -0.5742
  416SOL    MW4 1669   3.304   0.765   0.810  0.3383 -0.3358 -0.6409
  417SOL     OW 1670   3.115   0.940   0.605  0.0902  0.1875 -0.2073
  417SOL    HW2 1671   3.123   1.008   0.671  0.9474  0.8268 -0.9511
  417SOL    HW3 1672   3.057   0.875   0.644 -0.4489  1.1712  0.6545
  417SOL    MW4 1673   3.109   0.940   0.619  0.1321  0.4017 -0.1917
  418SOL     OW 1674   3.160   1.147   0.809  0.2126 -0.2786 -0.3541
  418SOL    HW2 1675   3.183   1.147   0.902 -0.0977  1.4145 -0.2664
  418SOL    HW3 1676   3.231   1.194   0.766 -0.5458  0.5383 -0.7359
  418SOL    MW4 1677   3.172   1.153   0.815  0.0715  0.0525 -0.3929
  419SOL     OW 1678   3.399   1.287   0.731 -0.2120  0.4562 -0.5935
  419SOL    HW2 1679   3.478   1.235   0.749 -1.2108 -0.8359  0.0803
  419SOL    HW3 1680   3.411   1.366   0.784  0.2766 -0.0671  0.0855
  419SOL    MW4 1681   3.411   1.291   0.740 -0.2797  0.2166 -0.4150
  420SOL     OW 1682   3.409   1.537   0.839 -0.1702 -0.3084  0.0207
  420SOL    HW2 1683   3.421   1.526   0.934 -1.1945 -0.0902  0.1816
  420SOL    HW3 1684   3.470   1.606   0.815  0.7628 -1.0116  0.3644
  420SOL    MW4 1685   3.418   1.544   0.849 -0.1822 -0.3724  0.0873
  421SOL     OW 1686   3.166   1.631   0.746 -0.0809  0.5966  0.2463
  421SOL    HW2 1687   3.256   1.604   0.765 -0.5155 -0.7648  0.4165
  421SOL    HW3 1688   3.166   1.653   0.653 -0.1917 -2.0187 -0.4074
  421SOL    MW4 1689   3.178   1.630   0.736 -0.1531  0.0718  0.1826
  422SOL     OW 1690   3.235   1.884   0.825 -0.0528  0.0979 -0.1804
  422SOL    HW2 1691   3.183   1.897   0.904  0.2036  1.6737 -0.2515
  422SOL    HW3 1692   3.208   1.798   0.792 -1.4264  0.1917  0.6647
  422SOL    MW4 1693   3.224   1.875   0.831 -0.2003  0.3182 -0.0783
  423SOL     OW 1694   3.459   2.047   0.797  0.5759  0.5113 -0.1099
  423SOL    HW2 1695   3.445   2.131   0.841  0.5525  0.7795 -0.6197
  423SOL    HW3 1696   3.379   1.997   0.813  0.5728  0.6041  0.1594
  423SOL    MW4 1697   3.446   2.051   0.805  0.5722  0.5589 -0.1416
  424SOL     OW 1698   3.453   2.299   0.888 -0.2537 -0.0602 -0.2267
  424SOL    HW2 1699   3.421   2.323   0.975  0.3370  0.4053 -0.1353
  424SOL    HW3 1700   3.513   2.370   0.865  0.0822 -0.5186 -0.7416
  424SOL    MW4 1701   3.457   2.312   0.896 -0.1316 -0.0591 -0.2826
  425SOL     OW 1702   3.085   2.522   0.680  0.2640 -0.2369 -0.2243
  425SOL    HW2 1703   3.154   2.456   0.673  0.3230 -0.2032  0.0394
  425SOL    HW3 1704   3.006   2.472   0.705  0.4251 -0.1431  0.4906
  425SOL    MW4 1705   3.083   2.506   0.683  0.2930 -0.2203 -0.0951
  426SOL     OW 1706   3.160   2.733   0.883  0.3874 -0.2952 -0.1735
  426SOL    HW2 1707   3.126   2.656   0.837  0.6171 -0.9551  0.7499
  426SOL    HW3 1708   3.225   2.770   0.823  0.0142 -0.6039 -0.7781
  426SOL    MW4 1709   3.164   2.728   0.869  0.3688 -0.4230 -0.1315
  427SOL     OW 1710   3.291   2.890   0.651 -0.0951 -0.1089 -0.1187
  427SOL    HW2 1711   3.232   2.923   0.584  0.1993  1.4060  0.3524
  427SOL    HW3 1712   3.360   2.845   0.602 -0.7579 -0.4469 -0.7469
  427SOL    MW4 1713   3.292   2.888   0.636 -0.1435  0.0465 -0.1394
  428SOL     OW 1714   3.339   3.087   0.843  0.0294  0.0350 -0.1141
  428SOL    HW2 1715   3.362   3.058   0.932 -0.1279 -1.0953 -0.4283
  428SOL    HW3 1716   3.326   3.005   0.795 -0.7181  0.6520 -0.9626
  428SOL    MW4 1717   3.340   3.072   0.849 -0.0899 -0.0327 -0.2675
  429SOL     OW 1718   3.111   3.249   0.779 -0.2760  0.4259  0.0195
  429SOL    HW2 1719   3.182   3.186   0.782 -0.2666  0.4718  1.2840
  429SOL    HW3 1720   3.039   3.207   0.827  0.5910  2.3816  3.1511
  429SOL    MW4 1721   3.111   3.235   0.786 -0.1602  0.6897  0.5995
  430SOL     OW 1722   3.108   3.487   0.905 -0.2152  0.1966  0.1531
  430SOL    HW2 1723   3.118   3.398   0.872  0.8438 -0.2873  1.7005
  430SOL    HW3 1724   3.024   3.517   0.871 -0.3464 -1.2141 -0.7798
  430SOL    MW4 1725   3.099   3.479   0.896 -0.0930 -0.0534  0.2341
  431SOL     OW 1726   3.347   3.577   0.784 -0.3004  0.4107 -0.4525
  431SOL    HW2 1727   3.332   3.672   0.779  0.6010  0.6612  1.1960
  431SOL    HW3 1728   3.267   3.543   0.825  0.3337  0.7821  1.1604
  431SOL    MW4 1729   3.334   3.585   0.789 -0.0978  0.4930 -0.0222
  432SOL     OW 1730   3.323   3.858   0.838 -0.3806  0.0100 -0.1062
  432SOL    HW2 1731   3.337   3.859   0.933  0.7797 -1.6606 -0.2402
  432SOL    HW3 1732   3.394   3.910   0.802  0.6025 -1.3480 -0.1940
  432SOL    MW4 1733   3.334   3.865   0.846 -0.0978 -0.3893 -0.1355
  433SOL     OW 1734   3.105   3.970   0.691 -0.6419 -0.1252 -0.0690
  433SOL    HW2 1735   3.187   3.949   0.734  0.3902  1.5672 -1.1334
  433SOL    HW3 1736   3.039   3.919   0.738  0.6540  0.4266  2.4481
  433SOL    MW4 1737   3.107   3.961   0.703 -0.3347  0.1712  0.1227
  434SOL     OW 1738   3.088   4.239   0.793  0.0268 -0.0447  0.1556
  434SOL    HW2 1739   3.180   4.264   0.780 -0.1304  0.5947  0.2725
  434SOL    HW3 1740   3.079   4.157   0.744  0.4117  0.3955 -0.6588
  434SOL    MW4 1741   3.099   4.231   0.785  0.0567  0.0978  0.0635
  435SOL     OW 1742   3.322   4.355   0.714 -0.2913  0.5313 -0.1470
  435SOL    HW2 1743   3.319   4.437   0.762  0.3191  0.5588 -0.1612
  435SOL    HW3 1744   3.355   4.378   0.627  1.3616  0.0325  0.3394
  435SOL    MW4 1745   3.326   4.369   0.709  0.0074  0.4697 -0.0847
  436SOL     OW 1746   3.789   4.664   0.843  0.6406 -0.2904 -0.0590
  436SOL    HW2 1747   3.860   4.709   0.798  1.2931  0.0282  1.2681
  436SOL    HW3 1748   3.711   4.716   0.822  1.1498  0.6150  0.2352
  436SOL    MW4 1749   3.788   4.677   0.834  0.7937 -0.1289  0.1549
  437SOL     OW 1750   3.541   0.107   0.757  0.5898  0.2484 -0.4109
  437SOL    HW2 1751   3.484   0.040   0.795 -1.4408  1.8205 -0.6052
  437SOL    HW3 1752   3.558   0.076   0.668  1.2952 -0.9664  0.1222
  437SOL    MW4 1753   3.535   0.094   0.751  0.4151  0.2955 -0.3662
  438SOL     OW 1754   3.606   0.375   0.790 -0.0888 -0.3543  0.3525
  438SOL    HW2 1755   3.585   0.379   0.883 -0.8953 -0.3565  0.1672
  438SOL    HW3 1756   3.577   0.288   0.762  2.4325 -1.3348  0.6536
  438SOL    MW4 1757   3.600   0.364   0.799  0.1376 -0.4840  0.3678
  439SOL     OW 1758   3.818   0.560   0.772 -0.1915 -0.1659 -0.3427
  439SOL    HW2 1759   3.789   0.646   0.804  0.1907 -0.4250  0.7234
  439SOL    HW3 1760   3.747   0.500   0.795 -0.0191 -0.3148 -0.2006
  439SOL    MW4 1761   3.805   0.564   0.779 -0.1183 -0.2198 -0.1833
  440SOL     OW 1762   3.748   0.811   0.846  0.1595  0.1840  0.1496
  440SOL    HW2 1763   3.746   0.812   0.942  0.6328  0.5098  0.1582
  440SOL    HW3 1764   3.834   0.847   0.823  0.4703 -0.8809 -0.3811
  440SOL    MW4 1765   3.759   0.816   0.856  0.2630  0.0865  0.0808
  441SOL     OW 1766   3.487   0.950   0.674 -0.6627 -0.0877  0.2729
  441SOL    HW2 1767   3.565   0.895   0.680 -0.2378  0.5251  0.4623
  441SOL    HW3 1768   3.423   0.906   0.729 -0.5623 -0.7831 -0.1619
  441SOL    MW4 1769   3.489   0.937   0.682 -0.5934 -0.0986  0.2405
  442SOL     OW 1770   3.632   1.139   0.834 -0.0962  0.0459 -0.3575
  442SOL    HW2 1771   3.608   1.131   0.926 -0.3535 -1.3899 -0.5306
  442SOL    HW3 1772   3.594   1.061   0.793  0.1131  0.6140 -1.6565
  442SOL    MW4 1773   3.623   1.127   0.841 -0.1025 -0.0684 -0.5518
  443SOL     OW 1774   3.853   1.303   0.756 -0.1286  0.2880 -0.0327
  443SOL    HW2 1775   3.777   1.249   0.777 -0.8483  0.5511 -1.8738
  443SOL    HW3 1776   3.850   1.312   0.661  2.1965  0.3253 -0.1288
  443SOL    MW4 1777   3.843   1.297   0.746  0.0832  0.3276 -0.2883
  444SOL     OW 1778   3.825   1.567   0.846  0.2982 -0.0758 -0.1292
  444SOL    HW2 1779   3.901   1.618   0.818 -1.3360  0.9915 -2.8289
  444SOL    HW3 1780   3.841   1.479   0.812 -0.8392  0.7833 -3.0363
  444SOL    MW4 1781   3.837   1.562   0.838 -0.0675  0.1785 -0.8690
  445SOL     OW 1782   3.601   1.722   0.771 -0.5466  0.1057  0.0734
  445SOL    HW2 1783   3.630   1.795   0.825  0.1162 -0.2366  0.1860
  445SOL    HW3 1784   3.671   1.657   0.779 -0.5017  0.0104 -1.1180
  445SOL    MW4 1785   3.614   1.723   0.779 -0.4532  0.0479 -0.0690
  446SOL     OW 1786   3.682   1.946   0.922  0.3698 -0.0573 -0.3061
  446SOL    HW2 1787   3.747   1.999   0.876 -0.3805 -0.1378 -1.4801
  446SOL    HW3 1788   3.598   1.978   0.889 -0.1267 -1.3059 -0.2817
  446SOL    MW4 1789   3.679   1.958   0.911  0.2053 -0.2326 -0.4578
  447SOL     OW 1790   3.874   2.062   0.730 -0.2632  0.6857  0.2931
  447SOL    HW2 1791   3.960   2.031   0.760  0.3244  0.9928 -1.0504
  447SOL    HW3 1792   3.888   2.086   0.639 -1.9428  0.1273 -0.1215
  447SOL    MW4 1793   3.887   2.061   0.722 -0.4075  0.6526  0.0612
  448SOL     OW 1794   3.861   2.319   0.857 -0.3660  0.1184 -0.5364
  448SOL    HW2 1795   3.844   2.301   0.949  1.6415  0.2401 -0.1198
  448SOL    HW3 1796   3.860   2.233   0.815  2.3060 -0.3698  0.2605
  448SOL    MW4 1797   3.859   2.305   0.863  0.2515  0.0699 -0.3763
  449SOL     OW 1798   3.653   2.494   0.812 -0.3717 -0.3602  0.1297
  449SOL    HW2 1799   3.659   2.583   0.848 -0.8960 -0.7804  1.2831
  449SOL    HW3 1800   3.733   2.451   0.840 -0.1970 -0.3143 -0.2866
  449SOL    MW4 1801   3.664   2.500   0.820 -0.4177 -0.4096  0.2270
  450SOL     OW 1802   3.678   2.783   0.867 -0.0210  0.2176 -0.0947
  450SOL    HW2 1803   3.668   2.776   0.962 -0.0317  0.1118 -0.1038
  450SOL    HW3 1804   3.728   2.864   0.854 -0.8387  0.7356 -0.0460
  450SOL    MW4 1805   3.683   2.793   0.878 -0.1304  0.2720 -0.0895
  451SOL     OW 1806   3.872   2.781   0.643  0.3879  0.3473 -0.6617
  451SOL    HW2 1807   3.784   2.745   0.630  0.5520 -0.3662  0.2296
  451SOL    HW3 1808   3.907   2.788   0.554  0.0468 -0.8955 -0.9062
  451SOL    MW4 1809   3.865   2.778   0.630  0.3648  0.0892 -0.5764
  452SOL     OW 1810   3.794   3.037   0.872  0.2060  0.1015  0.1219
  452SOL    HW2 1811   3.869   3.090   0.844  0.1850  0.6915  1.1550
  452SOL    HW3 1812   3.718   3.084   0.839  0.2732 -0.3605 -0.7038
  452SOL    MW4 1813   3.794   3.050   0.864  0.2120  0.1187  0.1492
  453SOL     OW 1814   3.573   3.179   0.746  0.1293  0.0831 -0.6115
  453SOL    HW2 1815   3.490   3.137   0.767 -0.2586  0.9098 -0.4730
  453SOL    HW3 1816   3.574   3.183   0.650  0.1481 -0.1851 -0.6247
  453SOL    MW4 1817   3.562   3.174   0.736  0.0808  0.1566 -0.5949
  454SOL     OW 1818   3.579   3.445   0.856  0.6168  0.6609  0.3684
  454SOL    HW2 1819   3.562   3.354   0.830  1.0854  0.8362 -0.5874
  454SOL    HW3 1820   3.499   3.492   0.831  0.6167  0.6243  0.2996
  454SOL    MW4 1821   3.566   3.439   0.849  0.6788  0.6788  0.2332
  455SOL     OW 1822   3.804   3.595   0.867  0.4239  0.5518 -0.2271
  455SOL    HW2 1823   3.887   3.548   0.860  0.9518  1.5795 -0.9323
  455SOL    HW3 1824   3.738   3.527   0.856  1.1753  0.1965 -2.9329
  455SOL    MW4 1825   3.806   3.580   0.865  0.5927  0.6404 -0.6771
  456SOL     OW 1826   3.767   3.863   0.852 -0.1904  0.5497 -0.6609
  456SOL    HW2 1827   3.693   3.888   0.796 -0.2150  0.9385 -0.4551
  456SOL    HW3 1828   3.762   3.767   0.857 -1.2165  0.6481  0.0990
  456SOL    MW4 1829   3.757   3.853   0.845 -0.3293  0.6139 -0.5335
  457SOL     OW 1830   3.541   3.979   0.723 -0.0822 -0.2673 -0.2584
  457SOL    HW2 1831   3.536   4.069   0.755  0.4259 -0.1105 -0.6094
  457SOL    HW3 1832   3.558   3.987   0.629  1.4798 -0.7035 -0.0432
  457SOL    MW4 1833   3.543   3.992   0.715  0.1907 -0.3040 -0.2763
  458SOL     OW 1834   3.562   4.248   0.838 -0.0770  0.5703  0.3399
  458SOL    HW2 1835   3.646   4.294   0.833  0.0983  0.1032 -1.3807
  458SOL    HW3 1836   3.498   4.311   0.807 -0.3237  0.8124  1.3309
  458SOL    MW4 1837   3.565   4.262   0.834 -0.0865  0.5403  0.2437
  459SOL     OW 1838   3.796   4.400   0.844 -0.1795 -0.2352  0.0186
  459SOL    HW2 1839   3.880   4.359   0.864 -0.0966  0.0182  0.1940
  459SOL    HW3 1840   3.815   4.494   0.840 -0.7878 -0.0042  1.9067
  459SOL    MW4 1841   3.809   4.407   0.846 -0.2487 -0.1712  0.2908
  460SOL     OW 1842   4.247   4.661   0.823 -0.4879 -0.0805  0.0912
  460SOL    HW2 1843   4.249   4.656   0.918  0.8573  3.0200  0.2932
  460SOL    HW3 1844   4.167   4.710   0.803 -1.6263 -2.1176 -0.5062
  460SOL    MW4 1845   4.237   4.667   0.833 -0.4606  0.0596  0.0391
  461SOL     OW 1846   4.013   0.145   0.742 -0.1200 -0.4646 -0.4175
  461SOL    HW2 1847   4.015   0.213   0.810  0.8104 -1.0959  0.2008
  461SOL    HW3 1848   3.999   0.193   0.661  1.1126  0.5374 -0.0613
  461SOL    MW4 1849   4.011   0.160   0.741  0.1659 -0.4157 -0.2889
  462SOL     OW 1850   4.035   0.398   0.857 -0.4195  0.3184 -0.2748
  462SOL    HW2 1851   4.111   0.432   0.811 -0.8484 -0.0098 -1.2365
  462SOL    HW3 1852   3.961   0.444   0.818 -1.0236 -1.8131 -1.7104
  462SOL    MW4 1853   4.035   0.409   0.846 -0.5565 -0.0062 -0.5911
  463SOL     OW 1854   4.271   0.496   0.726 -0.3615 -0.2284 -0.3870
  463SOL    HW2 1855   4.339   0.464   0.784 -0.6424 -0.0446  0.0483
  463SOL    HW3 1856   4.316   0.516   0.644 -0.2831 -2.2539 -0.8408
  463SOL    MW4 1857   4.286   0.495   0.723 -0.3881 -0.4714 -0.3894
  464SOL     OW 1858   4.224   0.763   0.865  0.0468 -0.2652 -0.3746
  464SOL    HW2 1859   4.141   0.804   0.840 -0.1390  0.1243  0.8536
  464SOL    HW3 1860   4.212   0.670   0.845 -0.6698 -0.2005 -0.2581
  464SOL    MW4 1861   4.212   0.756   0.859 -0.0720 -0.2053 -0.1972
  465SOL     OW 1862   4.002   0.895   0.770  0.0572  0.1578  0.0495
  465SOL    HW2 1863   4.023   0.985   0.794 -0.5669  0.2526  0.2485
  465SOL    HW3 1864   4.008   0.894   0.674 -0.1189  0.4581  0.0349
  465SOL    MW4 1865   4.005   0.906   0.761 -0.0491  0.2099  0.0739
  466SOL     OW 1866   4.075   1.158   0.831 -0.0288 -0.3894 -0.5352
  466SOL    HW2 1867   4.059   1.140   0.924 -0.1189 -1.5441 -0.7567
  466SOL    HW3 1868   3.997   1.205   0.802  0.0690  0.1091  0.0128
  466SOL    MW4 1869   4.062   1.162   0.839 -0.0277 -0.4760 -0.4921
  467SOL     OW 1870   4.292   1.285   0.730  0.0412  0.0917 -0.3062
  467SOL    HW2 1871   4.209   1.241   0.751  0.7904 -0.8592  0.7271
  467SOL    HW3 1872   4.359   1.225   0.763  1.1668  0.4470 -1.9009
  467SOL    MW4 1873   4.290   1.271   0.737  0.2890  0.0130 -0.3803
  468SOL     OW 1874   4.257   1.537   0.853 -0.6804 -0.0581 -0.1242
  468SOL    HW2 1875   4.280   1.530   0.946 -0.0362 -0.3481 -0.2984
  468SOL    HW3 1876   4.271   1.448   0.819  0.4833  0.3682 -0.7979
  468SOL    MW4 1877   4.262   1.524   0.861 -0.4420 -0.0401 -0.2360
  469SOL     OW 1878   4.068   1.716   0.797 -0.3344 -0.2960  0.1367
  469SOL    HW2 1879   4.130   1.645   0.813 -0.9370 -0.8440  0.0736
  469SOL    HW3 1880   4.076   1.734   0.703  0.3661  0.2421  0.2952
  469SOL    MW4 1881   4.078   1.709   0.787 -0.3214 -0.2972  0.1493
  470SOL     OW 1882   4.123   1.978   0.870  0.3129  0.2496  0.3062
  470SOL    HW2 1883   4.204   2.016   0.836 -0.7527  1.0226 -1.4089
  470SOL    HW3 1884   4.129   1.885   0.849  0.2246  0.5082 -0.8641
  470SOL    MW4 1885   4.135   1.971   0.863  0.1602  0.3856 -0.0745
  471SOL     OW 1886   4.278   2.049   0.661 -0.3515 -0.1220 -0.0577
  471SOL    HW2 1887   4.349   1.993   0.693 -0.7947 -0.7564 -0.1787
  471SOL    HW3 1888   4.311   2.085   0.578  0.5760  1.0831  0.8175
  471SOL    MW4 1889   4.292   2.046   0.654 -0.2875 -0.0467  0.0417
  472SOL     OW 1890   4.348   2.298   0.800 -0.0017  0.3370 -0.0590
  472SOL    HW2 1891   4.260   2.337   0.808  0.0222  0.0905  1.7250
  472SOL    HW3 1892   4.332   2.210   0.768 -0.5209 -0.1277  1.4445
  472SOL    MW4 1893   4.334   2.292   0.797 -0.0677  0.2432  0.3747
  473SOL     OW 1894   4.108   2.438   0.802 -0.6281  0.5413  0.2372
  473SOL    HW2 1895   4.093   2.531   0.818  0.8231  0.8905 -0.3378
  473SOL    HW3 1896   4.028   2.395   0.831 -0.4112  1.7353  2.7222
  473SOL    MW4 1897   4.096   2.445   0.808 -0.4082  0.7448  0.4892
  474SOL     OW 1898   4.076   2.702   0.819  0.5427 -0.0136  0.3345
  474SOL    HW2 1899   4.153   2.754   0.797  0.9930 -0.7499  0.1469
  474SOL    HW3 1900   4.011   2.728   0.754 -0.0394  2.0817  1.7193
  474SOL    MW4 1901   4.078   2.712   0.808  0.5255  0.1655  0.4925
  475SOL     OW 1902   4.311   2.835   0.768  0.0736  0.5763 -0.3592
  475SOL    HW2 1903   4.395   2.810   0.805 -0.7602  0.0706  1.2305
  475SOL    HW3 1904   4.323   2.825   0.673  1.2472 -1.2168 -0.0509
  475SOL    MW4 1905   4.323   2.830   0.760  0.1183  0.2730 -0.1089
  476SOL     OW 1906   4.304   3.112   0.838 -0.8994 -0.5788 -0.5115
  476SOL    HW2 1907   4.317   3.025   0.803 -0.3687 -0.1811 -1.3227
  476SOL    HW3 1908   4.355   3.169   0.780 -0.1601  0.1092  0.7754
  476SOL    MW4 1909   4.313   3.108   0.826 -0.7319 -0.4356 -0.4488
  477SOL     OW 1910   4.012   3.164   0.760  0.2318  0.0845 -0.1977
  477SOL    HW2 1911   4.015   3.256   0.786  1.4914  0.1008 -0.3755
  477SOL    HW3 1912   4.099   3.130   0.782  0.2556 -0.7042 -1.4577
  477SOL    MW4 1913   4.024   3.172   0.767  0.4010 -0.0174 -0.3874
  478SOL     OW 1914   4.041   3.450   0.840  0.4948  0.1669  0.2932
  478SOL    HW2 1915   4.056   3.464   0.934  0.1739 -0.3797  0.4345
  478SOL    HW3 1916   4.113   3.494   0.797  0.9705 -0.0698  0.8308
  478SOL    MW4 1917   4.052   3.457   0.847  0.5159  0.0639  0.3828
  479SOL     OW 1918   4.269   3.593   0.733  0.4951  0.3007 -0.0395
  479SOL    HW2 1919   4.272   3.674   0.783  0.2675  0.0452  0.3979
  479SOL    HW3 1920   4.266   3.620   0.642 -1.3583  0.8314  0.1540
  479SOL    MW4 1921   4.269   3.607   0.728  0.2203  0.3374  0.0437
  480SOL     OW 1922   4.267   3.845   0.853 -0.2725 -0.0630  0.2693
  480SOL    HW2 1923   4.261   3.855   0.948 -0.0602 -0.4906  0.3299
  480SOL    HW3 1924   4.181   3.871   0.821  0.2371  1.9276  0.4081
  480SOL    MW4 1925   4.255   3.850   0.861 -0.1769  0.1433  0.2956
  481SOL     OW 1926   4.020   3.974   0.780 -0.0951 -0.1654 -0.0269
  481SOL    HW2 1927   3.945   3.930   0.820 -0.3229 -0.1237 -0.4111
  481SOL    HW3 1928   3.998   3.981   0.687  0.9062 -1.2673 -0.3762
  481SOL    MW4 1929   4.007   3.969   0.773  0.0072 -0.3054 -0.1237
  482SOL     OW 1930   4.035   4.236   0.843  0.3335 -0.3229  0.5803
  482SOL    HW2 1931   4.100   4.293   0.802 -2.0227  0.7308 -1.8741
  482SOL    HW3 1932   4.047   4.151   0.802  0.4895 -0.2548  0.4853
  482SOL    MW4 1933   4.045   4.232   0.832  0.0429 -0.1745  0.2440
  483SOL     OW 1934   4.216   4.402   0.699 -0.3375  0.1112  0.1948
  483SOL    HW2 1935   4.224   4.493   0.727 -0.4882  0.7885 -1.9294
  483SOL    HW3 1936   4.305   4.366   0.710 -0.1457  0.6654  0.4594
  483SOL    MW4 1937   4.229   4.409   0.704 -0.3324  0.2732 -0.0506
  484SOL     OW 1938   0.211   0.018   1.182  0.2930  0.0922 -0.0446
  484SOL    HW2 1939   0.295   0.049   1.216 -0.0611  0.5581  0.4171
  484SOL    HW3 1940   0.226   0.007   1.088  0.7762  0.5001 -0.0183
  484SOL    MW4 1941   0.224   0.021   1.174  0.3100  0.2075  0.0198
  485SOL     OW 1942   4.461   0.140   1.251  0.1742  0.0754 -0.0028
  485SOL    HW2 1943   4.389   0.091   1.211 -1.0075  0.3150  1.7787
  485SOL    HW3 1944   4.539   0.087   1.233 -0.7664 -1.3096 -0.0485
  485SOL    MW4 1945   4.462   0.127   1.243 -0.1054 -0.0757  0.2263
  486SOL     OW 1946   4.465   0.391   1.121  0.1330 -0.1398 -0.1863
  486SOL    HW2 1947   4.387   0.429   1.161  1.1846  0.7324  1.0959
  486SOL    HW3 1948   4.469   0.302   1.156 -0.4645 -0.2919 -0.5077
  486SOL    MW4 1949   4.456   0.384   1.131  0.1926 -0.0448 -0.0595
  487SOL     OW 1950   0.187   0.514   1.246  0.0694 -0.2332  0.8413
  487SOL    HW2 1951   0.196   0.590   1.189  0.9389 -0.5764  0.5151
  487SOL    HW3 1952   0.118   0.461   1.206 -1.2569  0.8736  1.6276
  487SOL    MW4 1953   0.179   0.517   1.233  0.0091 -0.1325  0.9019
  488SOL     OW 1954   0.217   0.752   1.111  0.0637  0.2183  0.1803
  488SOL    HW2 1955   0.301   0.781   1.146 -0.0506  0.9238 -0.1231
  488SOL    HW3 1956   0.151   0.800   1.161 -0.1601 -0.2828  0.3729
  488SOL    MW4 1957   0.219   0.762   1.122  0.0191  0.2452  0.1657
  489SOL     OW 1958   4.483   0.912   1.241  0.0455 -0.2194 -0.3980
  489SOL    HW2 1959   4.486   0.895   1.335 -0.8071 -0.3151 -0.3852
  489SOL    HW3 1960   4.412   0.856   1.208 -0.9040  1.1771 -0.7907
  489SOL    MW4 1961   4.474   0.903   1.249 -0.1922 -0.0478 -0.4482
  490SOL     OW 1962   4.453   1.161   1.124 -0.2412  0.4483  0.2586
  490SOL    HW2 1963   4.372   1.196   1.160  0.1803  1.1625  0.5333
  490SOL    HW3 1964   4.466   1.077   1.168 -1.0565  0.1291 -0.1098
  490SOL    MW4 1965   4.444   1.155   1.134 -0.2928  0.5006  0.2462
  491SOL     OW 1966   0.199   1.262   1.230  0.1396 -0.0570 -0.2966
  491SOL    HW2 1967   0.259   1.202   1.185 -1.0181 -1.1224 -0.4638
  491SOL    HW3 1968   0.112   1.236   1.199 -0.3496  2.0438 -0.7447
  491SOL    MW4 1969   0.195   1.250   1.220 -0.0777  0.0795 -0.3777
  492SOL     OW 1970   0.238   1.516   1.129  0.3656 -0.0448  0.0707
  492SOL    HW2 1971   0.254   1.426   1.159 -0.7525 -0.0588  0.6411
  492SOL    HW3 1972   0.225   1.508   1.034 -0.2843 -0.5624  0.1985
  492SOL    MW4 1973   0.239   1.503   1.120  0.1324 -0.1149  0.1631
  493SOL     OW 1974   0.023   1.663   1.235  0.2703  0.2361  0.0055
  493SOL    HW2 1975   0.033   1.746   1.188 -1.3243  0.0139 -0.7586
  493SOL    HW3 1976   0.098   1.611   1.208  0.6405  0.9979 -0.4548
  493SOL    MW4 1977   0.034   1.667   1.225  0.1088  0.3074 -0.1560
  494SOL     OW 1978   0.007   1.911   1.121 -0.1611 -0.7191 -0.2059
  494SOL    HW2 1979  -0.064   1.963   1.159  0.3603 -0.4330  0.3767
  494SOL    HW3 1980   0.001   1.928   1.027 -0.5844 -0.3424 -0.1099
  494SOL    MW4 1981  -0.003   1.920   1.113 -0.1483 -0.6317 -0.1165
  495SOL     OW 1982   0.198   2.064   1.249  0.1320  0.4011 -0.1934
  495SOL    HW2 1983   0.202   2.136   1.187 -0.2286  1.1248  0.6068
  495SOL    HW3 1984   0.140   1.999   1.208 -0.1967  0.9230 -0.5528
  495SOL    MW4 1985   0.191   2.065   1.236  0.0411  0.5653 -0.1351
  496SOL     OW 1986   0.230   2.289   1.070  0.5769  0.3066  0.4791
  496SOL    HW2 1987   0.314   2.335   1.076  0.1216  1.1458  0.5226
  496SOL    HW3 1988   0.166   2.353   1.098 -0.3257  0.4473 -1.7591
  496SOL    MW4 1989   0.233   2.303   1.074  0.3977  0.4361  0.1895
  497SOL     OW 1990   0.033   2.432   1.194  0.8075  0.1999  0.7772
  497SOL    HW2 1991   0.029   2.425   1.289 -0.0473  1.5013  0.8521
  497SOL    HW3 1992  -0.034   2.371   1.162 -0.4209  1.3538  1.0981
  497SOL    MW4 1993   0.023   2.423   1.202  0.5322  0.5238  0.8295
  498SOL     OW 1994   0.033   2.718   1.111  0.0011  0.0437 -0.3893
  498SOL    HW2 1995  -0.033   2.745   1.174 -1.1990 -0.4606 -1.4148
  498SOL    HW3 1996   0.014   2.625   1.094 -0.5388  0.5019 -2.4849
  498SOL    MW4 1997   0.022   2.709   1.117 -0.2285  0.0379 -0.8012
  499SOL     OW 1998   0.246   2.855   1.221 -0.0796 -0.2752  0.1983
  499SOL    HW2 1999   0.226   2.841   1.314 -0.9770 -2.0197 -0.2433
  499SOL    HW3 2000   0.178   2.807   1.174  1.0463 -0.3814 -1.3640
  499SOL    MW4 2001   0.234   2.847   1.227 -0.0494 -0.5193 -0.0662
  500SOL     OW 2002   0.205   3.090   1.077  0.4473  0.5046 -0.0690
  500SOL    HW2 2003   0.276   3.148   1.104  1.1082 -0.0845 -0.5362
  500SOL    HW3 2004   0.216   3.012   1.130  1.3341 -0.3753 -1.5027
  500SOL    MW4 2005   0.216   3.088   1.087  0.6515  0.3109 -0.3200
  501SOL     OW 2006   4.484   3.233   1.210  0.1590 -0.3523 -0.0993
  501SOL    HW2 2007   4.417   3.169   1.188  1.7285 -1.5255 -1.6109
  501SOL    HW3 2008   4.563   3.200   1.167  1.3879  1.6918  0.5477
  501SOL    MW4 2009   4.485   3.220   1.201  0.5279 -0.2375 -0.2134
  502SOL     OW 2010   4.449   3.500   1.107 -0.0455 -0.1980  0.0668
  502SOL    HW2 2011   4.461   3.416   1.150  0.4954 -0.0509  0.2191
  502SOL    HW3 2012   4.465   3.482   1.014 -1.5099 -0.5734 -0.1144
  502SOL    MW4 2013   4.453   3.487   1.100 -0.1674 -0.2282  0.0628
  503SOL     OW 2014   0.185   3.647   1.191 -0.1101  0.0120 -0.0828
  503SOL    HW2 2015   0.189   3.635   1.285  0.0572 -2.2389 -0.3530
  503SOL    HW3 2016   0.105   3.602   1.164  1.5523 -2.2581 -1.3990
  503SOL    MW4 2017   0.175   3.639   1.200  0.1313 -0.5844 -0.2919
  504SOL     OW 2018   0.212   3.915   1.098  0.2119 -0.1282  0.5194
  504SOL    HW2 2019   0.141   3.952   1.152 -0.4652 -0.1004 -0.3776
  504SOL    HW3 2020   0.204   3.821   1.110 -0.2045 -0.1434  0.1447
  504SOL    MW4 2021   0.202   3.908   1.107  0.0676 -0.1266  0.3518
  505SOL     OW 2022   4.465   4.002   1.203  0.2937  0.0627  0.8082
  505SOL    HW2 2023   4.451   3.996   1.297 -0.7793  2.7110  0.8613
  505SOL    HW3 2024   4.393   3.953   1.164  1.7553 -2.5962  1.3609
  505SOL    MW4 2025   4.454   3.995   1.210  0.3448  0.0610  0.8882
  506SOL     OW 2026   4.449   4.264   1.094 -0.0648 -0.0192  0.0153
  506SOL    HW2 2027   4.534   4.293   1.127  1.8853 -1.9390 -3.1285
  506SOL    HW3 2028   4.450   4.169   1.104 -1.7920 -0.0815 -0.2091
  506SOL    MW4 2029   4.460   4.255   1.100 -0.0353 -0.2809 -0.4290
  507SOL     OW 2030   0.149   4.414   1.236  0.0707 -0.4587  0.2676
  507SOL    HW2 2031   0.180   4.409   1.326  0.5886  0.1143  0.1194
  507SOL    HW3 2032   0.159   4.506   1.212  1.4578 -0.9166 -0.9269
  507SOL    MW4 2033   0.154   4.426   1.244  0.3221 -0.4430  0.0904
  508SOL     OW 2034   0.679   4.653   1.144 -0.5495  0.0926  0.1471
  508SOL    HW2 2035   0.751   4.687   1.198  0.5898 -1.1305 -0.5551
  508SOL    HW3 2036   0.664   4.564   1.178 -1.2455  0.0881 -0.1731
  508SOL    MW4 2037   0.687   4.645   1.156 -0.4910 -0.0696  0.0123
  509SOL     OW 2038   0.472   0.120   1.268  0.0138 -0.0260  0.1201
  509SOL    HW2 2039   0.458   0.206   1.228 -0.3863  0.0974  0.5174
  509SOL    HW3 2040   0.548   0.084   1.222  0.3910  0.6808  0.1849
  509SOL    MW4 2041   0.480   0.127   1.257  0.0108  0.0835  0.1811
  510SOL     OW 2042   0.416   0.379   1.166  0.1845  0.0045  0.1248
  510SOL    HW2 2043   0.330   0.408   1.196  0.9938  0.6384  1.8836
  510SOL    HW3 2044   0.411   0.386   1.070 -2.5342 -2.3105  0.0339
  510SOL    MW4 2045   0.404   0.384   1.157 -0.0674 -0.2173  0.3448
  511SOL     OW 2046   0.653   0.489   1.248  0.3305 -0.1203 -0.1942
  511SOL    HW2 2047   0.652   0.576   1.209  0.5671  0.3606  0.8478
  511SOL    HW3 2048   0.569   0.450   1.224  0.6359  0.0194 -1.4944
  511SOL    MW4 2049   0.642   0.495   1.240  0.4020 -0.0384 -0.2284
  512SOL     OW 2050   0.649   0.731   1.092 -0.3834  0.0262 -0.0814
  512SOL    HW2 2051   0.578   0.791   1.116 -0.7616 -0.0216 -1.0816
  512SOL    HW3 2052   0.665   0.748   1.000  1.8993  1.0613  0.4689
  512SOL    MW4 2053   0.642   0.741   1.083 -0.1321  0.1565 -0.1408
  513SOL     OW 2054   0.444   0.885   1.210 -0.2973  0.4541  0.3883
  513SOL    HW2 2055   0.426   0.908   1.302 -0.1334  1.2418  0.2242
  513SOL    HW3 2056   0.432   0.967   1.162 -0.8821 -0.0668 -0.3658
  513SOL    MW4 2057   0.440   0.899   1.216 -0.3528  0.4894  0.2671
  514SOL     OW 2058   0.422   1.138   1.117 -0.1998  0.2289 -0.1227
  514SOL    HW2 2059   0.499   1.161   1.169 -1.0319  3.1021 -0.0920
  514SOL    HW3 2060   0.451   1.148   1.026 -0.1157 -0.1471 -0.1382
  514SOL    MW4 2061   0.436   1.142   1.112 -0.2985  0.5584 -0.1206
  515SOL     OW 2062   0.627   1.254   1.251  0.4136  0.0893 -0.1083
  515SOL    HW2 2063   0.705   1.199   1.250 -0.4811 -1.2226 -2.3657
  515SOL    HW3 2064   0.657   1.337   1.213  1.2017  0.3464  1.0490
  515SOL    MW4 2065   0.642   1.258   1.246  0.3996 -0.0499 -0.2533
  516SOL     OW 2066   0.683   1.546   1.133  0.2700 -0.1057 -0.0600
  516SOL    HW2 2067   0.751   1.603   1.167 -0.3130  0.8089 -0.4217
  516SOL    HW3 2068   0.602   1.597   1.142 -0.0684 -0.3305 -1.6609
  516SOL    MW4 2069   0.681   1.560   1.139  0.1484 -0.0148 -0.3189
  517SOL     OW 2070   0.446   1.666   1.227 -0.2894  0.3975 -0.0465
  517SOL    HW2 2071   0.436   1.648   1.320  1.3785 -2.2223 -0.2975
  517SOL    HW3 2072   0.374   1.619   1.186 -0.1633  0.3120 -0.1722
  517SOL    MW4 2073   0.436   1.657   1.234 -0.0527  0.0405 -0.0961
  518SOL     OW 2074   0.430   1.935   1.141  0.0469  0.0613  0.2092
  518SOL    HW2 2075   0.436   1.844   1.170 -0.3050 -0.1659 -0.4137
  518SOL    HW3 2076   0.341   1.961   1.165  0.2660  0.3521  0.7050
  518SOL    MW4 2077   0.419   1.927   1.148  0.0294  0.0695  0.1925
  519SOL     OW 2078   0.654   2.050   1.220  0.1001  0.1545 -0.2949
  519SOL    HW2 2079   0.645   2.055   1.315 -0.6625  0.2522 -0.3703
  519SOL    HW3 2080   0.582   1.995   1.192  1.4607 -1.4856 -0.6414
  519SOL    MW4 2081   0.643   2.044   1.229  0.1791 -0.0491 -0.3506
  520SOL     OW 2082   0.705   2.310   1.128 -0.3625  0.1967  0.1864
  520SOL    HW2 2083   0.622   2.358   1.133 -0.3257  0.3710 -0.6621
  520SOL    HW3 2084   0.686   2.226   1.169 -1.1424 -0.0001 -0.5569
  520SOL    MW4 2085   0.691   2.305   1.134 -0.4606  0.1936 -0.0236
  521SOL     OW 2086   0.445   2.424   1.176 -0.0728 -0.0350  0.0865
  521SOL    HW2 2087   0.442   2.408   1.270 -1.3137 -0.4188 -0.0077
  521SOL    HW3 2088   0.450   2.519   1.168 -0.9319  0.0551  0.5370
  521SOL    MW4 2089   0.445   2.434   1.187 -0.3498 -0.0737  0.1334
  522SOL     OW 2090   0.480   2.704   1.160  0.3728  0.3418 -0.0662
  522SOL    HW2 2091   0.401   2.752   1.186 -1.2930 -2.0247 -0.6331
  522SOL    HW3 2092   0.490   2.724   1.067 -0.7766 -1.0052 -0.4917
  522SOL    MW4 2093   0.471   2.713   1.151  0.0014 -0.1481 -0.1971
  523SOL     OW 2094   0.695   2.884   1.211  0.1191 -0.3289  0.1372
  523SOL    HW2 2095   0.680   2.970   1.173  0.2785  0.2536  1.3600
  523SOL    HW3 2096   0.618   2.833   1.187  0.1994  0.0359 -0.9142
  523SOL    MW4 2097   0.683   2.888   1.203  0.1507 -0.2036  0.1599
  524SOL     OW 2098   0.668   3.126   1.086 -0.5837 -0.4483 -0.1179
  524SOL    HW2 2099   0.755   3.145   1.121 -0.8496 -0.6726  0.6511
  524SOL    HW3 2100   0.682   3.120   0.991 -0.3342  2.7612 -0.3378
  524SOL    MW4 2101   0.682   3.128   1.078 -0.5858 -0.0541 -0.0454
  525SOL     OW 2102   0.418   3.264   1.170 -0.1217  0.1146  0.0979
  525SOL    HW2 2103   0.426   3.356   1.147 -1.3497  0.1454 -0.2431
  525SOL    HW3 2104   0.497   3.223   1.133  0.6602  1.1019  0.6700
  525SOL    MW4 2105   0.430   3.271   1.162 -0.1805  0.2489  0.1283
  526SOL     OW 2106   0.433   3.540   1.104 -0.2744  0.0844  0.3988
  526SOL    HW2 2107   0.517   3.578   1.132 -0.1509  1.3940 -1.6386
  526SOL    HW3 2108   0.367   3.597   1.143 -0.1666  0.4210  0.0883
  526SOL    MW4 2109   0.436   3.553   1.113 -0.2439  0.3018  0.0889
  527SOL     OW 2110   0.667   3.673   1.183 -0.3774  0.3589  0.4128
  527SOL    HW2 2111   0.675   3.678   1.278  1.7543  0.7308  0.2551
  527SOL    HW3 2112   0.665   3.764   1.154 -3.1631  0.2789  0.2050
  527SOL    MW4 2113   0.668   3.685   1.191 -0.4637  0.3974  0.3647
  528SOL     OW 2114   0.679   3.933   1.096  0.0332 -0.4691 -0.1066
  528SOL    HW2 2115   0.602   3.972   1.139  0.4955  1.2464 -0.7848
  528SOL    HW3 2116   0.656   3.933   1.003  0.2181 -1.4320 -0.1502
  528SOL    MW4 2117   0.666   3.938   1.089  0.1185 -0.3698 -0.2019
  529SOL     OW 2118   0.446   4.056   1.204  0.1133 -0.3045 -0.0938
  529SOL    HW2 2119   0.437   4.151   1.208  3.0611  0.1743 -2.6620
  529SOL    HW3 2120   0.368   4.026   1.158 -0.3355  0.9977 -0.1869
  529SOL    MW4 2121   0.435   4.065   1.198  0.4430 -0.0696 -0.4450
  530SOL     OW 2122   0.391   4.312   1.119  0.2201  0.3638 -0.7068
  530SOL    HW2 2123   0.464   4.354   1.164 -0.8870  0.6253  0.8643
  530SOL    HW3 2124   0.313   4.348   1.160 -0.7680 -2.0410 -0.4088
  530SOL    MW4 2125   0.390   4.322   1.130 -0.0564  0.0811 -0.4601
  531SOL     OW 2126   0.642   4.394   1.226 -0.1577 -0.0325 -0.5763
  531SOL    HW2 2127   0.640   4.387   1.322 -0.8804  2.1016 -0.4162
  531SOL    HW3 2128   0.730   4.365   1.202  0.5500  0.8426  0.8783
  531SOL    MW4 2129   0.653   4.389   1.236 -0.1597  0.3643 -0.3632
  532SOL     OW 2130   1.100   0.038   1.170 -0.1549  0.0715 -0.6084
  532SOL    HW2 2131   1.102  -0.057   1.185  1.3271  0.1922  0.0204
  532SOL    HW3 2132   1.121   0.048   1.077  0.2250 -0.1955 -0.5546
  532SOL    MW4 2133   1.103   0.026   1.160  0.0907  0.0522 -0.5183
  533SOL     OW 2134   0.878   0.144   1.263  0.1077  0.1974  0.1246
  533SOL    HW2 2135   0.886   0.120   1.355 -0.9423 -1.6031 -0.2238
  533SOL    HW3 2136   0.956   0.108   1.221 -0.5586 -1.0576 -0.0731
  533SOL    MW4 2137   0.889   0.136   1.269 -0.1187 -0.2058  0.0525
  534SOL     OW 2138   0.885   0.375   1.123  0.1182 -0.3143  0.4135
  534SOL    HW2 2139   0.870   0.292   1.170 -0.7581  0.0436  0.7641
  534SOL    HW3 2140   0.815   0.433   1.153 -0.1126  0.1057 -0.9117
  534SOL    MW4 2141   0.874   0.371   1.133 -0.0279 -0.2117  0.2850
  535SOL     OW 2142   1.147   0.473   1.226 -0.1638  0.2770  0.5777
  535SOL    HW2 2143   1.135   0.481   1.321 -1.2678  1.0403  0.3892
  535SOL    HW3 2144   1.061   0.444   1.194  0.7984 -2.0472  0.0292
  535SOL    MW4 2145   1.134   0.471   1.234 -0.1825  0.0710  0.4805
  536SOL     OW 2146   1.133   0.756   1.103  0.0268  0.5062 -0.0054
  536SOL    HW2 2147   1.049   0.787   1.137 -0.1761  1.4821 -1.3462
  536SOL    HW3 2148   1.143   0.669   1.140 -1.3838  0.5423  0.5035
  536SOL    MW4 2149   1.123   0.749   1.112 -0.1861  0.6397 -0.1152
  537SOL     OW 2150   0.882   0.829   1.186  0.4948  0.0609  0.2942
  537SOL    HW2 2151   0.869   0.924   1.179  0.8794  0.0801 -0.1808
  537SOL    HW3 2152   0.807   0.792   1.138  0.7490  0.1376 -0.1680
  537SOL    MW4 2153   0.870   0.837   1.178  0.5791  0.0735  0.1707
  538SOL     OW 2154   0.868   1.109   1.163 -0.0659 -0.0609 -0.3931
  538SOL    HW2 2155   0.937   1.170   1.188  0.0391  0.4397 -1.8366
  538SOL    HW3 2156   0.864   1.115   1.068 -1.1553 -1.1219 -0.4336
  538SOL    MW4 2157   0.877   1.118   1.154 -0.1958 -0.1348 -0.5889
  539SOL     OW 2158   1.074   1.273   1.266  0.3607  0.3234  0.2650
  539SOL    HW2 2159   1.087   1.288   1.360 -2.0755 -0.8044  0.7947
  539SOL    HW3 2160   1.158   1.236   1.237  1.2538  0.9599  1.9163
  539SOL    MW4 2161   1.087   1.270   1.275  0.1571  0.2584  0.5527
  540SOL     OW 2162   1.105   1.529   1.175  0.0038  0.1222  0.2474
  540SOL    HW2 2163   1.072   1.443   1.203 -0.5090  0.6676  1.3118
  540SOL    HW3 2164   1.128   1.516   1.083 -0.3331 -1.0875  0.3230
  540SOL    MW4 2165   1.103   1.516   1.167 -0.1084  0.0347  0.3978
  541SOL     OW 2166   0.891   1.686   1.230  0.0884 -0.3497  0.0936
  541SOL    HW2 2167   0.902   1.764   1.176 -0.2746 -0.2084  0.2217
  541SOL    HW3 2168   0.972   1.636   1.217  0.9472  0.7410  1.1300
  541SOL    MW4 2169   0.903   1.689   1.221  0.1538 -0.1872  0.2472
  542SOL     OW 2170   0.890   1.940   1.125 -0.1278  0.0385  0.2343
  542SOL    HW2 2171   0.961   1.984   1.172  0.4017 -2.2278  1.6238
  542SOL    HW3 2172   0.812   1.990   1.148  0.8265  1.7940 -0.2869
  542SOL    MW4 2173   0.889   1.952   1.134  0.0679 -0.0288  0.3490
  543SOL     OW 2174   1.105   2.060   1.251  0.4237 -0.3624  0.3958
  543SOL    HW2 2175   1.109   2.053   1.347 -1.2937  0.8164  0.5891
  543SOL    HW3 2176   1.130   2.150   1.232  1.7263 -0.8764 -0.3516
  543SOL    MW4 2177   1.109   2.071   1.261  0.3691 -0.2747  0.3227
  544SOL     OW 2178   1.148   2.327   1.170 -0.4033  0.2762 -0.2279
  544SOL    HW2 2179   1.219   2.382   1.202 -0.1758 -1.8087  3.0832
  544SOL    HW3 2180   1.069   2.377   1.189  0.0111  1.2508 -1.0463
  544SOL    MW4 2181   1.147   2.341   1.177 -0.3186  0.1299  0.1010
  545SOL     OW 2182   0.897   2.483   1.234  0.1120  0.2795 -0.3236
  545SOL    HW2 2183   0.888   2.481   1.330 -0.4191  0.2027 -0.3720
  545SOL    HW3 2184   0.833   2.418   1.203  2.2224 -1.7269 -0.5929
  545SOL    MW4 2185   0.887   2.474   1.243  0.3204  0.0050 -0.3655
  546SOL     OW 2186   0.901   2.719   1.115 -0.3070 -0.1241 -0.4716
  546SOL    HW2 2187   0.881   2.636   1.158  0.7750 -0.1420 -0.0001
  546SOL    HW3 2188   0.830   2.777   1.142 -0.8954 -0.7972 -0.5470
  546SOL    MW4 2189   0.889   2.715   1.124 -0.2418 -0.2153 -0.4193
  547SOL     OW 2190   1.113   2.823   1.254 -0.0196  0.6669  0.0481
  547SOL    HW2 2191   1.102   2.809   1.348  1.0183  1.2926  0.2676
  547SOL    HW3 2192   1.034   2.787   1.215 -0.9555  1.3813  1.2522
  547SOL    MW4 2193   1.101   2.817   1.261 -0.0062  0.8438  0.2360
  548SOL     OW 2194   1.148   3.075   1.116  0.8536  0.5308 -0.1681
  548SOL    HW2 2195   1.147   2.994   1.167  1.0433  0.4816 -0.2446
  548SOL    HW3 2196   1.126   3.048   1.027  0.4134  0.6326 -0.0927
  548SOL    MW4 2197   1.145   3.061   1.111  0.8205  0.5376 -0.1683
  549SOL     OW 2198   0.892   3.209   1.232  0.4319 -0.2285 -0.0350
  549SOL    HW2 2199   0.895   3.300   1.202 -0.9524 -0.3396 -0.5473
  549SOL    HW3 2200   0.979   3.175   1.212  0.8790  0.9067 -0.0848
  549SOL    MW4 2201   0.903   3.216   1.225  0.3083 -0.0935 -0.1093
  550SOL     OW 2202   0.840   3.441   1.110 -0.3122  0.2055  0.1492
  550SOL    HW2 2203   0.773   3.507   1.128 -2.3644 -1.5102 -0.9613
  550SOL    HW3 2204   0.859   3.451   1.017 -0.0400 -0.2406  0.1559
  550SOL    MW4 2205   0.833   3.451   1.100 -0.5471 -0.0799  0.0036
  551SOL     OW 2206   1.069   3.593   1.191 -0.4450  0.0787  0.1916
  551SOL    HW2 2207   1.147   3.551   1.155 -0.1500 -1.7009  2.7624
  551SOL    HW3 2208   0.995   3.545   1.154 -0.2792  0.6343 -0.8739
  551SOL    MW4 2209   1.070   3.581   1.181 -0.3842 -0.0827  0.3902
  552SOL     OW 2210   1.139   3.847   1.111  0.1307 -0.4140  0.1301
  552SOL    HW2 2211   1.062   3.889   1.150 -1.1201 -1.5156 -1.0591
  552SOL    HW3 2212   1.125   3.753   1.125  1.0498 -0.6507 -0.4850
  552SOL    MW4 2213   1.127   3.840   1.118  0.0869 -0.5903 -0.1081
  553SOL     OW 2214   0.929   4.014   1.205  0.1745  0.0424  0.1681
  553SOL    HW2 2215   0.915   4.029   1.299  1.5328 -0.8857  0.5286
  553SOL    HW3 2216   0.843   3.985   1.173 -0.0222 -0.7325  1.3527
  553SOL    MW4 2217   0.916   4.012   1.213  0.3278 -0.1822  0.3719
  554SOL     OW 2218   0.895   4.308   1.161 -0.5700 -0.5867 -0.3981
  554SOL    HW2 2219   0.905   4.215   1.179 -2.5550 -0.9122 -0.8124
  554SOL    HW3 2220   0.897   4.314   1.065  0.8550 -0.0165 -0.3535
  554SOL    MW4 2221   0.897   4.296   1.150 -0.6438 -0.5546 -0.4469
  555SOL     OW 2222   1.118   4.442   1.232  0.0763  0.1996  0.2710
  555SOL    HW2 2223   1.120   4.427   1.327 -0.4570  0.3765  0.3124
  555SOL    HW3 2224   1.034   4.405   1.205  0.1498  0.3140 -0.1072
  555SOL    MW4 2225   1.107   4.435   1.241  0.0157  0.2379  0.2264
  556SOL     OW 2226   1.616   4.615   1.115  0.4029  0.1858  0.1660
  556SOL    HW2 2227   1.665   4.670   1.176 -1.1411 -0.0237  1.6504
  556SOL    HW3 2228   1.581   4.544   1.169  0.2182 -0.8178 -1.2413
  556SOL    MW4 2229   1.618   4.613   1.130  0.1749  0.0262  0.1761
  557SOL     OW 2230   1.385   0.123   1.204  0.0367  0.5110  0.6519
  557SOL    HW2 2231   1.443   0.059   1.164 -1.2373  0.2888 -0.9391
  557SOL    HW3 2232   1.297   0.088   1.190 -0.5567  1.5624  1.6444
  557SOL    MW4 2233   1.381   0.110   1.197 -0.2096  0.6204  0.5729
  558SOL     OW 2234   1.397   0.406   1.127  0.0324  0.3511  0.3348
  558SOL    HW2 2235   1.402   0.316   1.157 -0.2862  0.0857 -0.3936
  558SOL    HW3 2236   1.318   0.441   1.168 -0.1213  0.1409  0.2226
  558SOL    MW4 2237   1.387   0.399   1.136 -0.0300  0.2884  0.2239
  559SOL     OW 2238   1.636   0.516   1.209  0.3661  0.5514  0.0088
  559SOL    HW2 2239   1.622   0.598   1.162 -0.9304  0.5177  0.3180
  559SOL    HW3 2240   1.556   0.465   1.193 -0.1984  0.6120  2.3655
  559SOL    MW4 2241   1.623   0.520   1.201  0.1205  0.5550  0.3606
  560SOL     OW 2242   1.566   0.748   1.099 -0.1038 -0.2041 -0.2034
  560SOL    HW2 2243   1.652   0.787   1.118 -0.1155  0.1897 -0.9501
  560SOL    HW3 2244   1.564   0.740   1.004 -1.3412  0.8234 -0.2749
  560SOL    MW4 2245   1.577   0.752   1.089 -0.2686 -0.0166 -0.3114
  561SOL     OW 2246   1.335   0.878   1.254 -0.1149 -0.0353  0.2163
  561SOL    HW2 2247   1.407   0.837   1.207 -0.4949 -0.5747  0.1098
  561SOL    HW3 2248   1.256   0.837   1.219 -0.4630  0.3813  0.5054
  561SOL    MW4 2249   1.334   0.867   1.243 -0.2111 -0.0514  0.2403
  562SOL     OW 2250   1.322   1.156   1.173  0.2066  0.0419  0.2581
  562SOL    HW2 2251   1.308   1.062   1.186 -0.5808  0.2988  1.4127
  562SOL    HW3 2252   1.314   1.169   1.079  1.5529 -1.2339 -0.0471
  562SOL    MW4 2253   1.319   1.146   1.163  0.2805 -0.0926  0.3703
  563SOL     OW 2254   1.558   1.317   1.215 -0.4188  0.1627  0.3643
  563SOL    HW2 2255   1.618   1.261   1.166  0.6781  1.4961  0.1487
  563SOL    HW3 2256   1.475   1.269   1.215 -0.2541 -0.2204 -2.1974
  563SOL    MW4 2257   1.555   1.303   1.208 -0.2522  0.2881 -0.0021
  564SOL     OW 2258   1.546   1.555   1.082  0.2334 -0.2444  0.0335
  564SOL    HW2 2259   1.619   1.607   1.116  0.2041 -1.3237  1.8194
  564SOL    HW3 2260   1.566   1.465   1.107  0.2764 -1.1462 -3.0332
  564SOL    MW4 2261   1.558   1.550   1.090  0.2353 -0.5058 -0.1355
  565SOL     OW 2262   1.342   1.671   1.230  0.0086  0.2426  0.0469
  565SOL    HW2 2263   1.416   1.624   1.192  0.5961  0.2243  1.2033
  565SOL    HW3 2264   1.269   1.609   1.223  0.1595  0.1563 -0.8408
  565SOL    MW4 2265   1.342   1.656   1.224  0.1061  0.2289  0.0824
  566SOL     OW 2266   1.299   1.926   1.107 -0.1143 -0.2297  0.7175
  566SOL    HW2 2267   1.320   1.839   1.141 -1.1008 -0.6619  0.2457
  566SOL    HW3 2268   1.232   1.960   1.166  0.1729  0.1514  0.8211
  566SOL    MW4 2269   1.293   1.919   1.119 -0.2066 -0.2364  0.6690
  567SOL     OW 2270   1.535   2.058   1.195  0.1092 -0.7052  0.8731
  567SOL    HW2 2271   1.552   2.151   1.181  0.0691 -0.6830  0.9710
  567SOL    HW3 2272   1.457   2.040   1.143 -0.4494 -0.4647  1.6265
  567SOL    MW4 2273   1.527   2.068   1.186  0.0302 -0.6707  0.9855
  568SOL     OW 2274   1.561   2.332   1.144  0.4520 -0.7798 -0.3631
  568SOL    HW2 2275   1.489   2.385   1.177  1.4959  0.4195  0.0011
  568SOL    HW3 2276   1.554   2.339   1.048 -0.6393 -1.6734 -0.3685
  568SOL    MW4 2277   1.550   2.340   1.136  0.4457 -0.7398 -0.3157
  569SOL     OW 2278   1.370   2.480   1.251 -0.2516 -0.4225  0.2708
  569SOL    HW2 2279   1.339   2.478   1.342 -0.3050  0.4422  0.2825
  569SOL    HW3 2280   1.347   2.568   1.221 -0.8867 -0.9574 -0.8159
  569SOL    MW4 2281   1.363   2.491   1.259 -0.3424 -0.3791  0.1290
  570SOL     OW 2282   1.331   2.726   1.136  0.1709 -0.1772  0.4224
  570SOL    HW2 2283   1.409   2.764   1.175  0.6797  0.1488 -0.8755
  570SOL    HW3 2284   1.258   2.762   1.186  0.8604 -0.7866  1.8983
  570SOL    MW4 2285   1.332   2.735   1.148  0.3290 -0.2146  0.4458
  571SOL     OW 2286   1.567   2.853   1.207  0.5996  0.2670  0.1685
  571SOL    HW2 2287   1.642   2.801   1.179  1.1337  0.5816  0.9765
  571SOL    HW3 2288   1.563   2.926   1.146  0.9564  0.2555  0.1341
  571SOL    MW4 2289   1.576   2.855   1.196  0.7170  0.3068  0.2706
  572SOL     OW 2290   1.552   3.106   1.073 -0.0192  0.0099  0.0004
  572SOL    HW2 2291   1.638   3.131   1.106  0.3494  0.7446 -1.4901
  572SOL    HW3 2292   1.491   3.160   1.123  0.4489  0.2036  0.3692
  572SOL    MW4 2293   1.555   3.116   1.084  0.0912  0.1323 -0.1476
  573SOL     OW 2294   1.342   3.225   1.220 -0.1421 -0.2172 -0.5546
  573SOL    HW2 2295   1.328   3.226   1.315  1.3377  1.2473 -0.3303
  573SOL    HW3 2296   1.273   3.168   1.186  1.1432 -3.2194  1.6822
  573SOL    MW4 2297   1.331   3.217   1.228  0.2229 -0.4203 -0.2300
  574SOL     OW 2298   1.301   3.477   1.116 -0.0586 -0.3403  0.0851
  574SOL    HW2 2299   1.318   3.386   1.140 -1.5628 -0.4185  0.9266
  574SOL    HW3 2300   1.312   3.479   1.021  0.2405 -1.3390  0.0884
  574SOL    MW4 2301   1.305   3.465   1.106 -0.2176 -0.4823  0.1966
  575SOL     OW 2302   1.518   3.583   1.234 -0.0533  0.1673  0.0807
  575SOL    HW2 2303   1.529   3.676   1.217  1.5522  0.1888  1.0569
  575SOL    HW3 2304   1.425   3.566   1.221 -0.1626  1.6654 -1.2186
  575SOL    MW4 2305   1.507   3.593   1.230  0.1441  0.3679  0.0381
  576SOL     OW 2306   1.530   3.846   1.181  0.0132 -0.0502  0.5467
  576SOL    HW2 2307   1.462   3.902   1.219  1.1290  2.0443 -0.4618
  576SOL    HW3 2308   1.529   3.867   1.088  0.6372 -1.5256  0.2003
  576SOL    MW4 2309   1.521   3.857   1.174  0.2427  0.0315  0.3680
  577SOL     OW 2310   1.319   4.010   1.262  0.2918  0.5271  0.2425
  577SOL    HW2 2311   1.321   4.090   1.211  1.1236  0.1832 -0.2716
  577SOL    HW3 2312   1.253   3.955   1.220  0.4161  0.5590  0.0070
  577SOL    MW4 2313   1.311   4.013   1.250  0.4178  0.4859  0.1435
  578SOL     OW 2314   1.293   4.247   1.127 -0.2335 -0.3396  0.0404
  578SOL    HW2 2315   1.230   4.316   1.147 -0.3657 -0.8405  1.3661
  578SOL    HW3 2316   1.323   4.268   1.038 -0.2505  1.4324  0.4274
  578SOL    MW4 2317   1.289   4.259   1.118 -0.2532 -0.1717  0.2664
  579SOL     OW 2318   1.490   4.408   1.242  0.0947 -0.5974  0.5455
  579SOL    HW2 2319   1.496   4.392   1.336 -0.9719 -1.0104  0.5487
  579SOL    HW3 2320   1.425   4.345   1.211 -2.2608  1.8973  0.1550
  579SOL    MW4 2321   1.482   4.398   1.251 -0.3568 -0.3223  0.4946
  580SOL     OW 2322   1.995   4.646   1.162 -0.1212  0.2971  0.3102
  580SOL    HW2 2323   2.009   4.556   1.191 -1.7052  0.0075  0.2258
  580SOL    HW3 2324   1.983   4.640   1.068 -0.4444  0.5692  0.3320
  580SOL    MW4 2325   1.995   4.633   1.154 -0.3728  0.2952  0.3021
  581SOL     OW 2326   1.801   0.128   1.265 -0.1451 -0.0707  0.0530
  581SOL    HW2 2327   1.823   0.211   1.222 -0.7925  0.6158  1.0292
  581SOL    HW3 2328   1.866   0.066   1.232 -0.6938  0.4109 -2.0179
  581SOL    MW4 2329   1.812   0.131   1.255 -0.3030  0.0834 -0.0914
  582SOL     OW 2330   1.840   0.370   1.125 -0.0474 -0.2783 -0.1256
  582SOL    HW2 2331   1.772   0.435   1.144 -0.2749 -0.8894  1.2201
  582SOL    HW3 2332   1.836   0.358   1.030 -1.0759  0.4999 -0.1920
  582SOL    MW4 2333   1.831   0.377   1.115 -0.2130 -0.2562  0.0430
  583SOL     OW 2334   2.030   0.548   1.212 -0.4703 -0.1165  0.4560
  583SOL    HW2 2335   2.035   0.548   1.307 -0.0154 -0.8343  0.4381
  583SOL    HW3 2336   1.966   0.480   1.190 -0.3978 -0.1212  0.2503
  583SOL    MW4 2337   2.022   0.539   1.221 -0.4008 -0.2118  0.4265
  584SOL     OW 2338   2.031   0.802   1.099 -0.6722  0.0161 -0.0665
  584SOL    HW2 2339   2.036   0.709   1.122  0.5505 -0.1414 -0.9394
  584SOL    HW3 2340   2.031   0.803   1.003  2.5254  1.0420 -0.1030
  584SOL    MW4 2341   2.032   0.790   1.089 -0.0894  0.1307 -0.1864
  585SOL     OW 2342   1.788   0.896   1.186  0.1412 -0.5802 -0.0187
  585SOL    HW2 2343   1.793   0.917   1.280 -1.4817  0.3399 -0.1101
  585SOL    HW3 2344   1.878   0.874   1.162  0.6472 -0.5028  1.6791
  585SOL    MW4 2345   1.801   0.896   1.196 -0.0062 -0.4485  0.1932
  586SOL     OW 2346   1.777   1.185   1.126 -1.0860 -0.0396 -0.4459
  586SOL    HW2 2347   1.774   1.092   1.148  1.1056 -0.1980 -0.6920
  586SOL    HW3 2348   1.787   1.186   1.031  0.0573  0.3987 -0.3332
  586SOL    MW4 2349   1.778   1.173   1.116 -0.6459 -0.0026 -0.4634
  587SOL     OW 2350   1.986   1.307   1.244  0.0018  0.7588  0.6586
  587SOL    HW2 2351   2.062   1.258   1.214  0.8726  1.5645  1.5225
  587SOL    HW3 2352   1.911   1.261   1.206  0.9324  0.1695 -0.4770
  587SOL    MW4 2353   1.986   1.294   1.235  0.2394  0.7874  0.6229
  588SOL     OW 2354   2.005   1.582   1.147  0.1386  0.2940 -0.4643
  588SOL    HW2 2355   2.012   1.493   1.182 -0.1532  0.0324 -1.0528
  588SOL    HW3 2356   2.010   1.570   1.052  1.0691  1.0019 -0.5159
  588SOL    MW4 2357   2.007   1.569   1.139  0.2229  0.3529 -0.5487
  589SOL     OW 2358   1.757   1.680   1.223  0.3917  0.2812 -0.1033
  589SOL    HW2 2359   1.764   1.770   1.190 -1.0885  0.5614  0.3232
  589SOL    HW3 2360   1.834   1.636   1.188  0.3804  1.3458 -1.5257
  589SOL    MW4 2361   1.768   1.686   1.214  0.1950  0.4586 -0.2346
  590SOL     OW 2362   1.787   1.950   1.117  0.0775  0.0719  0.0598
  590SOL    HW2 2363   1.696   1.978   1.119 -0.0773 -0.4673  0.7388
  590SOL    HW3 2364   1.810   1.949   1.024 -0.5862  0.2806 -0.1049
  590SOL    MW4 2365   1.778   1.953   1.105 -0.0304  0.0284  0.1278
  591SOL     OW 2366   2.043   2.082   1.201  0.0905  0.0590 -0.2992
  591SOL    HW2 2367   2.044   2.069   1.296 -0.5443  1.2378 -0.1220
  591SOL    HW3 2368   1.958   2.051   1.173 -0.3623  1.2105 -0.2450
  591SOL    MW4 2369   2.032   2.076   1.210 -0.0529  0.3667 -0.2687
  592SOL     OW 2370   2.010   2.357   1.153  0.2506  0.5069 -0.0997
  592SOL    HW2 2371   2.096   2.395   1.172  1.1015 -1.0983 -0.6909
  592SOL    HW3 2372   2.018   2.265   1.176 -1.4410  0.4246  0.2093
  592SOL    MW4 2373   2.022   2.350   1.158  0.1397  0.2842 -0.1369
  593SOL     OW 2374   1.782   2.453   1.261  0.4839 -0.3744 -0.0502
  593SOL    HW2 2375   1.867   2.416   1.241  0.4697 -0.4858  0.0955
  593SOL    HW3 2376   1.720   2.400   1.211  0.4567 -0.5969  0.2168
  593SOL    MW4 2377   1.785   2.441   1.252  0.4785 -0.4187  0.0043
  594SOL     OW 2378   1.803   2.700   1.121 -0.3331  0.3143  0.0573
  594SOL    HW2 2379   1.798   2.614   1.163 -1.1169 -0.2154 -1.0786
  594SOL    HW3 2380   1.792   2.681   1.028  1.5468  1.4430 -0.4144
  594SOL    MW4 2381   1.800   2.686   1.114 -0.1885  0.3934 -0.1549
  595SOL     OW 2382   2.044   2.790   1.242 -0.2619  0.0240  0.2443
  595SOL    HW2 2383   2.036   2.876   1.201  2.2997 -0.8539 -2.2500
  595SOL    HW3 2384   1.969   2.741   1.208  0.1216  0.2503 -0.9377
  595SOL    MW4 2385   2.033   2.795   1.232  0.1268 -0.0622 -0.2407
  596SOL     OW 2386   2.015   3.060   1.137 -0.5586 -0.5953  0.5523
  596SOL    HW2 2387   1.931   3.089   1.172 -0.8111 -0.7962  0.1041
  596SOL    HW3 2388   2.002   3.055   1.042  0.0161 -0.4258  0.4579
  596SOL    MW4 2389   2.003   3.063   1.129 -0.5162 -0.5994  0.4807
  597SOL     OW 2390   1.784   3.185   1.216  0.1769  0.0554 -0.1795
  597SOL    HW2 2391   1.776   3.191   1.311  0.3263  0.5454 -0.1972
  597SOL    HW3 2392   1.773   3.274   1.185  0.2823 -0.0798 -0.6137
  597SOL    MW4 2393   1.781   3.197   1.224  0.2105  0.1023 -0.2390
  598SOL     OW 2394   1.743   3.469   1.156  0.4155  0.1595 -0.0011
  598SOL    HW2 2395   1.801   3.545   1.167  1.1673 -0.2991 -0.7187
  598SOL    HW3 2396   1.655   3.504   1.171  0.7930  1.0734  0.1419
  598SOL    MW4 2397   1.739   3.484   1.159  0.5646  0.2196 -0.0768
  599SOL     OW 2398   1.981   3.648   1.213 -0.3413 -0.5401 -0.7443
  599SOL    HW2 2399   1.994   3.643   1.308 -0.4881 -0.1259 -0.7006
  599SOL    HW3 2400   2.056   3.602   1.175  0.6555  0.8453 -0.4747
  599SOL    MW4 2401   1.993   3.641   1.220 -0.2291 -0.3028 -0.7030
  600SOL     OW 2402   2.005   3.915   1.123  0.5507 -0.0056  0.0101
  600SOL    HW2 2403   1.929   3.966   1.150  0.5209 -0.6237  1.1081
  600SOL    HW3 2404   1.989   3.828   1.159  0.2649 -1.0048 -2.4228
  600SOL    MW4 2405   1.993   3.910   1.131  0.5090 -0.2191 -0.1662
  601SOL     OW 2406   1.758   4.001   1.214  0.7322 -0.2444  0.2407
  601SOL    HW2 2407   1.771   4.011   1.308  0.5899  1.1766  0.1170
  601SOL    HW3 2408   1.680   3.947   1.207  0.4714  0.0306  0.9385
  601SOL    MW4 2409   1.749   3.995   1.226  0.6789 -0.0210  0.3164
  602SOL     OW 2410   1.737   4.276   1.155 -0.4576  0.0334 -0.0467
  602SOL    HW2 2411   1.733   4.182   1.169 -0.8460  0.1133  0.4199
  602SOL    HW3 2412   1.652   4.308   1.186 -0.5090  0.4782 -0.6351
  602SOL    MW4 2413   1.725   4.268   1.161 -0.5157  0.1025 -0.0627
  603SOL     OW 2414   1.993   4.383   1.218  0.5881 -0.1335 -0.3191
  603SOL    HW2 2415   1.975   4.385   1.312 -1.5551  2.0202 -0.7227
  603SOL    HW3 2416   1.912   4.351   1.179  1.1343 -0.0849 -1.5046
  603SOL    MW4 2417   1.980   4.379   1.226  0.3774  0.1574 -0.5288
  604SOL     OW 2418   2.496   4.663   1.121  0.3876  0.4077 -0.4278
  604SOL    HW2 2419   2.569   4.719   1.146 -0.2608  0.2624  1.9002
  604SOL    HW3 2420   2.419   4.708   1.153 -0.1624 -1.6570  1.3032
  604SOL    MW4 2421   2.496   4.676   1.129  0.2294  0.1159  0.1078
  605SOL     OW 2422   2.239   0.077   1.207 -0.1442  0.0649 -0.0560
  605SOL    HW2 2423   2.240   0.170   1.186 -0.9984  0.0339 -0.2806
  605SOL    HW3 2424   2.150   0.049   1.186 -0.9412 -0.0582  3.2804
  605SOL    MW4 2425   2.227   0.086   1.202 -0.3619  0.0446  0.3545
  606SOL     OW 2426   2.241   0.357   1.146 -0.0877  0.4890 -0.0562
  606SOL    HW2 2427   2.171   0.420   1.163 -0.5882 -0.3596  1.0300
  606SOL    HW3 2428   2.245   0.351   1.051 -0.3499  1.8167 -0.1590
  606SOL    MW4 2429   2.233   0.365   1.136 -0.1881  0.5522  0.0736
  607SOL     OW 2430   2.475   0.503   1.219  0.0375  0.0801  0.3570
  607SOL    HW2 2431   2.482   0.521   1.312 -0.4410 -1.2349  0.6540
  607SOL    HW3 2432   2.401   0.444   1.211  1.2566 -1.3646 -0.6254
  607SOL    MW4 2433   2.466   0.498   1.230  0.1352 -0.2840  0.2664
  608SOL     OW 2434   2.452   0.763   1.100  0.4749 -0.1284 -0.0707
  608SOL    HW2 2435   2.455   0.670   1.122  0.4676 -0.2584 -0.6112
  608SOL    HW3 2436   2.431   0.765   1.006  1.2779  0.4008 -0.2470
  608SOL    MW4 2437   2.450   0.751   1.090  0.5798 -0.0756 -0.1653
  609SOL     OW 2438   2.249   0.920   1.204 -0.0861 -0.2798  0.2363
  609SOL    HW2 2439   2.324   0.870   1.172 -0.3722 -0.4865 -0.1220
  609SOL    HW3 2440   2.173   0.872   1.171 -0.3593  0.8367 -0.8053
  609SOL    MW4 2441   2.249   0.907   1.195 -0.1597 -0.1598  0.0515
  610SOL     OW 2442   2.209   1.195   1.116 -0.2027 -0.0476  0.3207
  610SOL    HW2 2443   2.296   1.231   1.134 -0.4385  0.1832  0.9966
  610SOL    HW3 2444   2.213   1.105   1.148  0.1248 -0.3791 -0.6265
  610SOL    MW4 2445   2.221   1.188   1.123 -0.1905 -0.0608  0.2850
  611SOL     OW 2446   2.454   1.319   1.200 -0.1133  0.4981 -0.0816
  611SOL    HW2 2447   2.533   1.271   1.178  1.4286  2.3374  1.2611
  611SOL    HW3 2448   2.470   1.408   1.169 -1.6021  0.9272  0.3170
  611SOL    MW4 2449   2.466   1.325   1.193 -0.1063  0.7975  0.1482
  612SOL     OW 2450   2.472   1.553   1.063  0.3718 -0.0920 -0.4055
  612SOL    HW2 2451   2.388   1.593   1.084  0.2468 -0.3420 -0.4319
  612SOL    HW3 2452   2.470   1.540   0.968  0.3733 -0.2492 -0.3842
  612SOL    MW4 2453   2.461   1.557   1.053  0.3555 -0.1458 -0.4061
  613SOL     OW 2454   2.263   1.679   1.202  0.7500 -0.1034 -0.2836
  613SOL    HW2 2455   2.263   1.765   1.160 -2.4777  0.2608  0.3217
  613SOL    HW3 2456   2.172   1.650   1.197  1.5476 -2.9583  0.6272
  613SOL    MW4 2457   2.251   1.686   1.195  0.4292 -0.4320 -0.0834
  614SOL     OW 2458   2.267   1.946   1.113 -0.0650  0.1212 -0.1110
  614SOL    HW2 2459   2.186   1.995   1.132 -0.4050 -0.6403  0.4148
  614SOL    HW3 2460   2.265   1.934   1.018  0.5129  1.9707 -0.3848
  614SOL    MW4 2461   2.256   1.951   1.103 -0.0334  0.2648 -0.0777
  615SOL     OW 2462   2.474   2.090   1.224  0.3739 -0.0533 -0.2433
  615SOL    HW2 2463   2.549   2.048   1.182 -0.1234 -2.2583  1.0210
  615SOL    HW3 2464   2.399   2.037   1.199 -0.1521 -0.4568  2.0336
  615SOL    MW4 2465   2.474   2.078   1.215  0.2389 -0.3974  0.2239
  616SOL     OW 2466   2.477   2.338   1.149 -0.1012  0.2303  0.2258
  616SOL    HW2 2467   2.489   2.250   1.184  0.0240  0.4912  0.8679
  616SOL    HW3 2468   2.453   2.326   1.058 -1.4045 -0.5062  0.6530
  616SOL    MW4 2469   2.476   2.325   1.142 -0.2568  0.1676  0.3669
  617SOL     OW 2470   2.264   2.485   1.229 -0.1200 -0.1556  0.0850
  617SOL    HW2 2471   2.258   2.483   1.324 -0.6490 -0.8813  0.0500
  617SOL    HW3 2472   2.338   2.428   1.208 -0.0151 -0.0109  0.0624
  617SOL    MW4 2473   2.273   2.477   1.239 -0.1762 -0.2322  0.0774
  618SOL     OW 2474   2.274   2.753   1.107 -0.7211 -0.0860  0.6525
  618SOL    HW2 2475   2.281   2.658   1.104 -1.8751 -0.1494 -1.4106
  618SOL    HW3 2476   2.193   2.770   1.155  0.6489 -0.0510  3.0151
  618SOL    MW4 2477   2.264   2.743   1.113 -0.6928 -0.0896  0.6919
  619SOL     OW 2478   2.514   2.841   1.234 -0.2480 -0.8184  0.2847
  619SOL    HW2 2479   2.509   2.832   1.329 -0.0641 -1.4114  0.2370
  619SOL    HW3 2480   2.437   2.795   1.201 -1.1485  0.7048  0.2248
  619SOL    MW4 2481   2.503   2.834   1.242 -0.3426 -0.6957  0.2705
  620SOL     OW 2482   2.436   3.099   1.138  0.2228 -0.1028 -0.0445
  620SOL    HW2 2483   2.359   3.147   1.168 -0.3180 -0.0809 -1.4482
  620SOL    HW3 2484   2.437   3.020   1.192 -0.1646  0.4110  0.7216
  620SOL    MW4 2485   2.426   3.095   1.149  0.1004 -0.0322 -0.1286
  621SOL     OW 2486   2.214   3.232   1.219  0.4168  0.2441 -0.0811
  621SOL    HW2 2487   2.199   3.310   1.166 -0.8211  0.1500  0.1198
  621SOL    HW3 2488   2.149   3.168   1.188  0.3741 -0.1691  0.8142
  621SOL    MW4 2489   2.203   3.234   1.208  0.2477  0.1774  0.0637
  622SOL     OW 2490   2.200   3.493   1.113  0.1318 -0.1249  0.0233
  622SOL    HW2 2491   2.285   3.527   1.140  0.5465 -0.4575 -0.8612
  622SOL    HW3 2492   2.204   3.490   1.017 -0.5659 -0.9464  0.0114
  622SOL    MW4 2493   2.212   3.497   1.104  0.0944 -0.2770 -0.0950
  623SOL     OW 2494   2.452   3.617   1.188 -0.1039 -0.0637  0.1336
  623SOL    HW2 2495   2.463   3.590   1.280 -0.0667 -0.0249  0.1404
  623SOL    HW3 2496   2.453   3.712   1.191  2.8911 -0.0343 -0.2627
  623SOL    MW4 2497   2.454   3.626   1.201  0.2961 -0.0546  0.0823
  624SOL     OW 2498   2.475   3.889   1.149 -0.3218  0.1086  0.2099
  624SOL    HW2 2499   2.392   3.921   1.182  0.0943  1.1590  0.2650
  624SOL    HW3 2500   2.459   3.873   1.056 -1.1095 -1.5329  0.6221
  624SOL    MW4 2501   2.462   3.891   1.141 -0.3707  0.0305  0.2714
  625SOL     OW 2502   2.235   4.023   1.231 -0.6758 -0.1918 -0.0197
  625SOL    HW2 2503   2.240   4.114   1.200 -1.3101 -0.1751 -0.0728
  625SOL    HW3 2504   2.155   3.989   1.192 -0.5645 -0.7031  0.1991
  625SOL    MW4 2505   2.225   4.031   1.222 -0.7448 -0.2565  0.0021
  626SOL     OW 2506   2.243   4.279   1.138 -0.2022  0.2128  0.3901
  626SOL    HW2 2507   2.160   4.314   1.170 -0.2455  1.3641 -0.9273
  626SOL    HW3 2508   2.237   4.286   1.042  0.6325 -1.4920  0.1833
  626SOL    MW4 2509   2.231   4.284   1.129 -0.0978  0.1392  0.1889
  627SOL     OW 2510   2.463   4.400   1.245  0.3639  0.3770 -0.3395
  627SOL    HW2 2511   2.406   4.336   1.202 -0.6822  0.6277  0.6446
  627SOL    HW3 2512   2.448   4.482   1.196 -1.0633  0.7395  0.6746
  627SOL    MW4 2513   2.454   4.402   1.233  0.0374  0.4578 -0.0759
  628SOL     OW 2514   2.955   4.637   1.098  0.2193 -0.2142 -0.6169
  628SOL    HW2 2515   2.925   4.554   1.135  1.1608 -0.0410  0.5962
  628SOL    HW3 2516   2.937   4.630   1.004 -3.7446  0.0046  0.0787
  628SOL    MW4 2517   2.949   4.625   1.090 -0.1795 -0.1626 -0.3650
  629SOL     OW 2518   2.720   0.119   1.208 -0.4664  0.0159  0.2532
  629SOL    HW2 2519   2.746   0.124   1.300 -1.7169 -0.9111  0.6715
  629SOL    HW3 2520   2.794   0.077   1.164 -0.5762 -1.1405  1.1520
  629SOL    MW4 2521   2.733   0.114   1.214 -0.6459 -0.2590  0.4270
  630SOL     OW 2522   2.698   0.379   1.103  0.0707 -0.1787  0.5946
  630SOL    HW2 2523   2.703   0.292   1.143  0.1696 -0.4048  0.0893
  630SOL    HW3 2524   2.607   0.405   1.115  0.1660 -0.1289  1.2171
  630SOL    MW4 2525   2.687   0.371   1.110  0.0966 -0.2020  0.6100
  631SOL     OW 2526   2.915   0.544   1.171 -0.3658  0.0440  0.3340
  631SOL    HW2 2527   2.916   0.622   1.116  0.6595  0.1984  0.5670
  631SOL    HW3 2528   2.838   0.495   1.141  0.9254 -0.5383 -2.2100
  631SOL    MW4 2529   2.905   0.548   1.159 -0.0606 -0.0124  0.0291
  632SOL     OW 2530   2.912   0.784   1.037  0.0524  0.5260  0.0867
  632SOL    HW2 2531   2.983   0.827   1.084  0.8748  0.2120 -0.8636
  632SOL    HW3 2532   2.833   0.809   1.085  0.8064  0.8381  1.1695
  632SOL    MW4 2533   2.911   0.793   1.049  0.2606  0.5258  0.1042
  633SOL     OW 2534   2.696   0.888   1.188  0.2995 -0.2794  0.5866
  633SOL    HW2 2535   2.673   0.981   1.185  0.4195 -0.2794 -2.7947
  633SOL    HW3 2536   2.613   0.842   1.174  0.5520 -0.6217  0.1940
  633SOL    MW4 2537   2.682   0.894   1.186  0.3488 -0.3245  0.0887
  634SOL     OW 2538   2.692   1.173   1.169  0.1303  0.3131  0.5486
  634SOL    HW2 2539   2.777   1.205   1.199 -0.3347  2.9838 -0.8760
  634SOL    HW3 2540   2.702   1.160   1.075 -0.2609 -2.0481  0.7821
  634SOL    MW4 2541   2.704   1.175   1.160  0.0176  0.3537  0.3915
  635SOL     OW 2542   2.950   1.287   1.212 -0.1950  0.0082 -0.0666
  635SOL    HW2 2543   2.955   1.310   1.305 -0.3566  0.0891 -0.0779
  635SOL    HW3 2544   2.945   1.371   1.166  0.3710 -0.0195 -0.1770
  635SOL    MW4 2545   2.950   1.301   1.218 -0.1416  0.0153 -0.0827
  636SOL     OW 2546   2.916   1.549   1.115  0.1346 -0.1876 -0.5265
  636SOL    HW2 2547   2.992   1.590   1.156  0.9885 -2.7502  0.5599
  636SOL    HW3 2548   2.931   1.559   1.021  0.5004  1.5987 -0.2928
  636SOL    MW4 2549   2.928   1.555   1.108  0.2954 -0.2899 -0.3524
  637SOL     OW 2550   2.680   1.690   1.193  0.3523  0.2005  0.1522
  637SOL    HW2 2551   2.756   1.635   1.175  1.3219  1.6437 -0.2541
  637SOL    HW3 2552   2.611   1.655   1.136  1.1175 -0.2217 -0.5288
  637SOL    MW4 2553   2.681   1.678   1.183  0.5815  0.3352  0.0088
  638SOL     OW 2554   2.685   1.949   1.116 -0.6862  0.2015 -0.2700
  638SOL    HW2 2555   2.767   1.985   1.148  0.3536  0.1107 -2.7374
  638SOL    HW3 2556   2.688   1.856   1.139 -0.2039  0.2481 -0.1512
  638SOL    MW4 2557   2.696   1.941   1.124 -0.4854  0.1956 -0.5798
  639SOL     OW 2558   2.914   2.079   1.198 -0.1661 -0.2032 -0.0299
  639SOL    HW2 2559   2.939   2.106   1.286 -1.5254 -0.0771  0.3209
  639SOL    HW3 2560   2.910   2.160   1.148  0.1645 -0.2301 -0.1032
  639SOL    MW4 2561   2.917   2.093   1.203 -0.3018 -0.1903  0.0068
  640SOL     OW 2562   2.910   2.321   1.066 -0.6116 -0.5580 -0.2315
  640SOL    HW2 2563   2.987   2.359   1.108 -1.6057  0.7891  0.3978
  640SOL    HW3 2564   2.836   2.358   1.113 -1.6882 -0.6386 -1.8181
  640SOL    MW4 2565   2.910   2.331   1.078 -0.8848 -0.3908 -0.3577
  641SOL     OW 2566   2.711   2.460   1.210  0.1780 -0.0697  0.0712
  641SOL    HW2 2567   2.720   2.464   1.305  1.2671 -1.6082  0.0710
  641SOL    HW3 2568   2.628   2.415   1.195  0.9757 -1.6683  0.3417
  641SOL    MW4 2569   2.701   2.454   1.220  0.4268 -0.4835  0.1069
  642SOL     OW 2570   2.751   2.725   1.132  0.3413  0.5015 -0.0375
  642SOL    HW2 2571   2.733   2.632   1.148  0.7936  0.4400  0.1102
  642SOL    HW3 2572   2.672   2.770   1.161 -0.3176  0.0739 -1.1000
  642SOL    MW4 2573   2.738   2.718   1.138  0.3142  0.4373 -0.1582
  643SOL     OW 2574   2.962   2.855   1.265  0.5036  0.3522  0.1208
  643SOL    HW2 2575   2.955   2.838   1.359  0.7081  1.2090  0.2955
  643SOL    HW3 2576   2.894   2.800   1.225  1.5964 -1.4050  0.5995
  643SOL    MW4 2577   2.953   2.845   1.272  0.6745  0.2337  0.2071
  644SOL     OW 2578   2.850   3.104   1.194  0.2437 -0.3453 -0.1000
  644SOL    HW2 2579   2.875   3.013   1.212  1.3642 -0.1035 -0.4224
  644SOL    HW3 2580   2.875   3.118   1.103 -1.2963 -0.1643 -0.5104
  644SOL    MW4 2581   2.857   3.094   1.184  0.1881 -0.2899 -0.1967
  645SOL     OW 2582   2.628   3.250   1.252 -0.4711  0.2279  0.3454
  645SOL    HW2 2583   2.707   3.198   1.238  0.7303  1.8318  1.0307
  645SOL    HW3 2584   2.558   3.199   1.211  1.1211 -0.5818 -1.4496
  645SOL    MW4 2585   2.629   3.236   1.245 -0.1025  0.3326  0.1988
  646SOL     OW 2586   2.666   3.464   1.089 -0.0472 -0.3568  0.3444
  646SOL    HW2 2587   2.664   3.379   1.133 -1.5998 -0.9919 -0.8976
  646SOL    HW3 2588   2.589   3.510   1.122  0.0868  0.0746  0.0581
  646SOL    MW4 2589   2.656   3.459   1.099 -0.2344 -0.3836  0.1428
  647SOL     OW 2590   2.872   3.580   1.249  0.2858 -0.3377 -0.0153
  647SOL    HW2 2591   2.954   3.533   1.230  0.1286 -0.4575 -0.3961
  647SOL    HW3 2592   2.807   3.538   1.193  0.5274  1.5985 -1.7799
  647SOL    MW4 2593   2.875   3.568   1.239  0.2968 -0.0980 -0.2984
  648SOL     OW 2594   2.896   3.843   1.118  0.0475 -0.1336 -0.0767
  648SOL    HW2 2595   2.977   3.878   1.155 -0.4365 -0.3408  1.1985
  648SOL    HW3 2596   2.890   3.754   1.151 -1.0701  0.1202  0.4437
  648SOL    MW4 2597   2.906   3.836   1.127 -0.1640 -0.1276  0.1605
  649SOL     OW 2598   2.704   4.033   1.197  0.3042 -0.0027 -0.2141
  649SOL    HW2 2599   2.767   3.965   1.174  0.7409  0.6536 -0.9485
  649SOL    HW3 2600   2.620   3.997   1.169  0.3999 -0.6519  0.2891
  649SOL    MW4 2601   2.701   4.019   1.190  0.3743 -0.0019 -0.2447
  650SOL     OW 2602   2.671   4.307   1.085 -0.1799  0.0218 -0.2209
  650SOL    HW2 2603   2.679   4.215   1.112 -1.1122 -0.2518 -0.8492
  650SOL    HW3 2604   2.610   4.345   1.148 -0.3714  0.0237 -0.4072
  650SOL    MW4 2605   2.664   4.300   1.097 -0.3281 -0.0138 -0.3282
  651SOL     OW 2606   2.877   4.395   1.213 -0.3951 -0.0332  0.3057
  651SOL    HW2 2607   2.947   4.343   1.173 -0.3985 -1.3343  1.9321
  651SOL    HW3 2608   2.798   4.369   1.165 -0.0635  0.0495 -0.2964
  651SOL    MW4 2609   2.876   4.384   1.201 -0.3517 -0.1941  0.4410
  652SOL     OW 2610   3.330   4.658   1.115  0.4748 -0.0689 -0.0873
  652SOL    HW2 2611   3.408   4.698   1.153 -0.3043  2.1040 -0.7017
  652SOL    HW3 2612   3.262   4.724   1.124 -0.5597 -0.7868 -2.2041
  652SOL    MW4 2613   3.331   4.672   1.121  0.2358  0.1230 -0.4476
  653SOL     OW 2614   3.127   0.170   1.174 -0.0228  0.0745  0.0732
  653SOL    HW2 2615   3.136   0.164   1.269 -1.5276 -0.2073  0.2171
  653SOL    HW3 2616   3.072   0.095   1.151 -1.8839  1.6221 -0.6805
  653SOL    MW4 2617   3.121   0.159   1.184 -0.4671  0.2415 -0.0073
  654SOL     OW 2618   3.170   0.435   1.127  0.0661 -0.3945  0.0971
  654SOL    HW2 2619   3.141   0.345   1.143 -0.0078 -0.3225  0.3583
  654SOL    HW3 2620   3.092   0.488   1.141 -0.1222 -0.3784 -0.9535
  654SOL    MW4 2621   3.156   0.430   1.131  0.0317 -0.3828 -0.0072
  655SOL     OW 2622   3.394   0.555   1.222  0.6778 -0.2580 -0.1133
  655SOL    HW2 2623   3.386   0.644   1.190  0.8933  0.0157  0.5881
  655SOL    HW3 2624   3.312   0.512   1.195  0.0662  0.4733  0.5809
  655SOL    MW4 2625   3.382   0.561   1.214  0.6251 -0.1255  0.0708
  656SOL     OW 2626   3.362   0.796   1.086 -0.5215  0.0484 -0.1473
  656SOL    HW2 2627   3.274   0.816   1.118 -0.9923 -0.2523 -1.2175
  656SOL    HW3 2628   3.352   0.790   0.991  0.7687  0.5552 -0.3280
  656SOL    MW4 2629   3.349   0.798   1.077 -0.4137  0.0755 -0.3122
  657SOL     OW 2630   3.119   0.870   1.209  0.0676  0.3776 -0.0568
  657SOL    HW2 2631   3.143   0.864   1.301 -1.7321  1.5351  0.5341
  657SOL    HW3 2632   3.134   0.962   1.186 -0.4523  0.3280 -0.6208
  657SOL    MW4 2633   3.124   0.882   1.218 -0.2384  0.5238 -0.0533
  658SOL     OW 2634   3.166   1.140   1.149 -0.2063 -0.1826  0.1704
  658SOL    HW2 2635   3.244   1.192   1.163 -0.1326 -0.2190 -0.0940
  658SOL    HW3 2636   3.093   1.200   1.166 -0.1200 -0.0862  0.1960
  658SOL    MW4 2637   3.167   1.155   1.153 -0.1853 -0.1746  0.1389
  659SOL     OW 2638   3.388   1.293   1.220 -0.1961 -0.1728  0.0257
  659SOL    HW2 2639   3.387   1.306   1.315 -0.3162 -1.6383  0.2303
  659SOL    HW3 2640   3.374   1.381   1.184 -0.0540  0.4084  1.3552
  659SOL    MW4 2641   3.386   1.306   1.228 -0.1934 -0.2896  0.2280
  660SOL     OW 2642   3.369   1.544   1.125  0.3563  0.0617  0.0037
  660SOL    HW2 2643   3.443   1.599   1.152  0.3933  0.2428 -0.4606
  660SOL    HW3 2644   3.292   1.593   1.151  0.3867  0.4506 -0.6288
  660SOL    MW4 2645   3.369   1.558   1.132  0.3653  0.1369 -0.1410
  661SOL     OW 2646   3.142   1.683   1.204 -0.3651 -0.2666  0.2092
  661SOL    HW2 2647   3.132   1.716   1.293  2.0512 -0.8034  0.7038
  661SOL    HW3 2648   3.123   1.759   1.148 -0.9721  0.3166  1.1961
  661SOL    MW4 2649   3.138   1.698   1.208 -0.1264 -0.2606  0.4046
  662SOL     OW 2650   3.110   1.930   1.080 -0.5892  0.4116 -0.4954
  662SOL    HW2 2651   3.187   1.971   1.119 -0.4255 -1.2597  0.9911
  662SOL    HW3 2652   3.037   1.984   1.110 -0.2799  0.2517  0.5812
  662SOL    MW4 2653   3.111   1.943   1.089 -0.5267  0.1701 -0.1574
  663SOL     OW 2654   3.340   2.045   1.212  0.4331  0.1010 -0.8048
  663SOL    HW2 2655   3.430   2.015   1.199  0.5850  0.3391 -0.3105
  663SOL    HW3 2656   3.340   2.135   1.180  0.7330  0.5883  0.5239
  663SOL    MW4 2657   3.352   2.053   1.206  0.4928  0.1967 -0.5642
  664SOL     OW 2658   3.333   2.309   1.140  0.2882 -0.2657 -0.2207
  664SOL    HW2 2659   3.404   2.358   1.183  0.9979 -0.5938 -1.0083
  664SOL    HW3 2660   3.255   2.332   1.190  0.8768  0.4497  0.3872
  664SOL    MW4 2661   3.332   2.319   1.152  0.4594 -0.2143 -0.2444
  665SOL     OW 2662   3.114   2.460   1.235 -0.1080  0.2053  0.4277
  665SOL    HW2 2663   3.126   2.461   1.330  0.6220 -0.5513  0.3496
  665SOL    HW3 2664   3.156   2.540   1.204 -1.0436  0.8528  0.8191
  665SOL    MW4 2665   3.121   2.471   1.244 -0.1349  0.1910  0.4690
  666SOL     OW 2666   3.183   2.724   1.166 -0.0257  0.3820  0.2292
  666SOL    HW2 2667   3.101   2.766   1.191  0.3063  1.2054 -0.0688
  666SOL    HW3 2668   3.186   2.731   1.071  1.3103  2.0979  0.3663
  666SOL    MW4 2669   3.172   2.730   1.157  0.1943  0.7174  0.2080
  667SOL     OW 2670   3.411   2.822   1.271 -0.2015  0.2057  0.0566
  667SOL    HW2 2671   3.395   2.911   1.239 -0.0608  0.6505  1.1842
  667SOL    HW3 2672   3.329   2.775   1.255 -0.3745  0.6224 -0.2778
  667SOL    MW4 2673   3.398   2.827   1.265 -0.2060  0.3195  0.1613
  668SOL     OW 2674   3.356   3.075   1.122  0.2595  0.1617  0.2945
  668SOL    HW2 2675   3.437   3.112   1.157 -0.1954  0.7227  0.7534
  668SOL    HW3 2676   3.287   3.129   1.159 -0.3790 -0.8104  0.5437
  668SOL    MW4 2677   3.358   3.087   1.132  0.1149  0.1075  0.3879
  669SOL     OW 2678   3.116   3.213   1.243  0.1704 -0.2409  0.5616
  669SOL    HW2 2679   3.112   3.307   1.224  0.6660  0.0396  1.8047
  669SOL    HW3 2680   3.026   3.182   1.228  0.7311 -0.2855 -3.2624
  669SOL    MW4 2681   3.103   3.221   1.239  0.3097 -0.2096  0.2211
  670SOL     OW 2682   3.107   3.474   1.182 -0.2539 -0.2301  0.1523
  670SOL    HW2 2683   3.195   3.512   1.181 -0.7267  0.8943  0.5936
  670SOL    HW3 2684   3.086   3.459   1.090  0.3602 -0.4157  0.0423
  670SOL    MW4 2685   3.116   3.477   1.170 -0.2353 -0.1063  0.1960
  671SOL     OW 2686   3.339   3.609   1.200 -0.4018  0.0850 -0.0749
  671SOL    HW2 2687   3.342   3.628   1.294 -0.5310  0.5142 -0.1575
  671SOL    HW3 2688   3.417   3.557   1.183 -1.8093 -2.4074  0.8083
  671SOL    MW4 2689   3.350   3.605   1.210 -0.6044 -0.1872  0.0306
  672SOL     OW 2690   3.382   3.875   1.108 -0.2188  0.8539 -0.2013
  672SOL    HW2 2691   3.300   3.907   1.144 -0.3088 -0.2566  0.6192
  672SOL    HW3 2692   3.384   3.782   1.132  1.4766  0.9691  0.1806
  672SOL    MW4 2693   3.371   3.867   1.116 -0.0069  0.7224 -0.0427
  673SOL     OW 2694   3.134   3.971   1.190  0.4298  0.1382 -0.1659
  673SOL    HW2 2695   3.133   3.981   1.285 -1.8909 -1.6100  0.0435
  673SOL    HW3 2696   3.117   4.059   1.156  2.2490  0.9556  0.9964
  673SOL    MW4 2697   3.131   3.984   1.198  0.3636  0.0155  0.0150
  674SOL     OW 2698   3.096   4.238   1.096  0.0341  0.0864  0.2046
  674SOL    HW2 2699   3.165   4.303   1.108  1.2928 -1.2133  0.0648
  674SOL    HW3 2700   3.101   4.215   1.003  0.1505 -0.8272  0.4354
  674SOL    MW4 2701   3.106   4.244   1.085  0.2158 -0.2055  0.2166
  675SOL     OW 2702   3.337   4.374   1.161  0.3600  0.3082  0.0977
  675SOL    HW2 2703   3.425   4.342   1.145 -0.1597  0.1620 -2.7096
  675SOL    HW3 2704   3.341   4.467   1.139  0.0429  0.5307  0.9512
  675SOL    MW4 2705   3.349   4.382   1.156  0.2494  0.3181 -0.1601
  676SOL     OW 2706   3.797   4.650   1.138  0.2863  0.1931  0.1951
  676SOL    HW2 2707   3.799   4.557   1.160  1.1537  0.0554 -0.4366
  676SOL    HW3 2708   3.805   4.652   1.042  0.4059  0.9232  0.2166
  676SOL    MW4 2709   3.798   4.638   1.128  0.4163  0.2713  0.1146
  677SOL     OW 2710   3.560   0.104   1.192  0.1299 -0.2672  0.2238
  677SOL    HW2 2711   3.565   0.175   1.128 -1.7792  1.5575  2.0282
  677SOL    HW3 2712   3.642   0.056   1.181  1.3020  1.9884 -1.2890
  677SOL    MW4 2713   3.571   0.107   1.182  0.0329  0.2712  0.2621
  678SOL     OW 2714   3.560   0.361   1.063  0.0829 -0.0347  0.1141
  678SOL    HW2 2715   3.634   0.376   1.122 -0.5695  0.9600  0.6811
  678SOL    HW3 2716   3.498   0.431   1.083 -0.6715 -0.3966 -0.9153
  678SOL    MW4 2717   3.561   0.372   1.074 -0.1028  0.0488  0.0530
  679SOL     OW 2718   3.751   0.476   1.233 -0.0441  0.7208 -0.2614
  679SOL    HW2 2719   3.841   0.467   1.200  1.3594  2.9670  2.7088
  679SOL    HW3 2720   3.729   0.568   1.218 -0.9413  0.7619  1.1571
  679SOL    MW4 2721   3.760   0.487   1.227  0.0229  1.0226  0.3177
  680SOL     OW 2722   3.747   0.734   1.143 -0.7818  0.4257 -0.2572
  680SOL    HW2 2723   3.824   0.778   1.178 -1.1665  1.4971 -0.7464
  680SOL    HW3 2724   3.672   0.784   1.177 -1.1973  0.6357 -1.4407
  680SOL    MW4 2725   3.747   0.746   1.152 -0.8872  0.5947 -0.4779
  681SOL     OW 2726   3.581   0.926   1.208  0.0795 -0.1664  0.3339
  681SOL    HW2 2727   3.599   1.008   1.163  2.4374 -0.5969  0.3983
  681SOL    HW3 2728   3.496   0.897   1.174  0.0865  1.3756 -1.0301
  681SOL    MW4 2729   3.572   0.933   1.198  0.3912 -0.0198  0.1624
  682SOL     OW 2730   3.608   1.180   1.104  0.2177  0.2915  0.0284
  682SOL    HW2 2731   3.674   1.223   1.158 -0.3444  0.5611  0.5090
  682SOL    HW3 2732   3.525   1.199   1.148 -0.2695  0.7039 -1.0382
  682SOL    MW4 2733   3.605   1.188   1.117  0.0792  0.3815 -0.0489
  683SOL     OW 2734   3.813   1.295   1.248  0.3149 -0.3322 -0.1909
  683SOL    HW2 2735   3.815   1.321   1.341 -1.1841  0.8408 -0.4607
  683SOL    HW3 2736   3.811   1.378   1.200 -2.1658 -0.9073 -1.1584
  683SOL    MW4 2737   3.813   1.310   1.254 -0.2100 -0.2533 -0.3542
  684SOL     OW 2738   3.830   1.546   1.123 -0.7142  0.1816  0.2015
  684SOL    HW2 2739   3.899   1.608   1.148 -1.0143 -0.0521  1.6326
  684SOL    HW3 2740   3.833   1.545   1.027  0.9182  0.5748  0.2349
  684SOL    MW4 2741   3.840   1.554   1.113 -0.5383  0.2025  0.3947
  685SOL     OW 2742   3.602   1.687   1.210  0.5254 -0.0884  0.3154
  685SOL    HW2 2743   3.621   1.780   1.208 -1.5837  0.3557 -0.6973
  685SOL    HW3 2744   3.683   1.645   1.181  1.5039  1.4111  0.8385
  685SOL    MW4 2745   3.615   1.693   1.206  0.3762  0.1680  0.2508
  686SOL     OW 2746   3.608   1.964   1.204  0.2331  0.1958  0.2269
  686SOL    HW2 2747   3.681   2.018   1.234  0.3705  0.3291 -0.3410
  686SOL    HW3 2748   3.628   1.946   1.112  0.8081 -1.8249  0.7153
  686SOL    MW4 2749   3.620   1.969   1.196  0.3273 -0.0532  0.2164
  687SOL     OW 2750   3.839   2.080   1.275 -0.6536 -0.2808 -0.0011
  687SOL    HW2 2751   3.860   2.067   1.368  2.0458  1.8493 -0.2563
  687SOL    HW3 2752   3.896   2.018   1.230 -0.0969  0.5004 -0.3660
  687SOL    MW4 2753   3.849   2.070   1.282 -0.2239  0.1035 -0.0831
  688SOL     OW 2754   3.821   2.330   1.132  0.2231  0.1737 -0.2131
  688SOL    HW2 2755   3.894   2.385   1.160  0.9243  0.3392 -2.2890
  688SOL    HW3 2756   3.838   2.245   1.174 -0.0803  1.0771  1.8098
  688SOL    MW4 2757   3.833   2.326   1.141  0.2754  0.3147 -0.2199
  689SOL     OW 2758   3.570   2.423   1.227  0.2619  0.0764 -0.2191
  689SOL    HW2 2759   3.586   2.428   1.321  0.0036  0.6778 -0.2085
  689SOL    HW3 2760   3.649   2.382   1.191  0.1538 -0.6120  0.3183
  689SOL    MW4 2761   3.583   2.418   1.235  0.2136  0.0651 -0.1467
  690SOL     OW 2762   3.626   2.699   1.143 -0.0819  0.1296 -0.3189
  690SOL    HW2 2763   3.614   2.608   1.168 -1.0410  0.3115 -0.0904
  690SOL    HW3 2764   3.555   2.746   1.186 -0.4436  0.7771 -1.5782
  690SOL    MW4 2765   3.615   2.693   1.152 -0.2563  0.2389 -0.4548
  691SOL     OW 2766   3.863   2.864   1.243  0.0491 -0.1029  0.3086
  691SOL    HW2 2767   3.859   2.871   1.339 -0.0496 -3.6092  0.6295
  691SOL    HW3 2768   3.795   2.800   1.222 -0.6476  1.4205 -2.2566
  691SOL    MW4 2769   3.853   2.857   1.253 -0.0558 -0.3645  0.0126
  692SOL     OW 2770   3.789   3.103   1.151  0.0224  0.6341  0.0370
  692SOL    HW2 2771   3.823   3.023   1.191 -2.2879  0.2437  1.2959
  692SOL    HW3 2772   3.768   3.077   1.061  0.9361  0.3137 -0.0958
  692SOL    MW4 2773   3.791   3.089   1.144 -0.1619  0.5403  0.1855
  693SOL     OW 2774   3.569   3.216   1.239 -0.3514  0.6596  0.3200
  693SOL    HW2 2775   3.549   3.299   1.195 -1.0836  0.8050  0.9233
  693SOL    HW3 2776   3.648   3.185   1.195 -2.5763 -0.6054 -3.0789
  693SOL    MW4 2777   3.577   3.223   1.227 -0.7415  0.5119 -0.0490
  694SOL     OW 2778   3.573   3.485   1.129  0.3568  0.4869  0.0996
  694SOL    HW2 2779   3.653   3.527   1.162  0.5784 -0.0214  0.2130
  694SOL    HW3 2780   3.589   3.474   1.035  0.4483  0.3242  0.1340
  694SOL    MW4 2781   3.586   3.489   1.121  0.3979  0.3984  0.1191
  695SOL     OW 2782   3.791   3.606   1.227 -0.2753  0.0395 -0.1365
  695SOL    HW2 2783   3.802   3.594   1.321  0.8077 -0.4015 -0.3151
  695SOL    HW3 2784   3.815   3.698   1.212  0.4412 -0.1421 -0.1135
  695SOL    MW4 2785   3.796   3.617   1.237 -0.0381 -0.0427 -0.1570
  696SOL     OW 2786   3.816   3.878   1.136  0.2066  0.1787  0.1340
  696SOL    HW2 2787   3.739   3.922   1.171 -0.8544 -1.7680  0.3376
  696SOL    HW3 2788   3.806   3.883   1.041 -0.8210 -1.1455  0.1623
  696SOL    MW4 2789   3.805   3.884   1.128 -0.0689 -0.2530  0.1645
  697SOL     OW 2790   3.591   4.000   1.232  0.1444  0.0450 -0.5867
  697SOL    HW2 2791   3.579   3.973   1.323  2.3677  1.5424  0.1942
  697SOL    HW3 2792   3.518   3.959   1.185 -2.3875  1.0924  2.2301
  697SOL    MW4 2793   3.580   3.991   1.238  0.1040  0.3808 -0.1122
  698SOL     OW 2794   3.584   4.263   1.134 -0.1926  0.3961  0.0668
  698SOL    HW2 2795   3.593   4.178   1.177  2.4995  0.7581  0.3045
  698SOL    HW3 2796   3.589   4.242   1.040 -1.2481  0.1346  0.0576
  698SOL    MW4 2797   3.586   4.249   1.127  0.0234  0.4096  0.0970
  699SOL     OW 2798   3.828   4.382   1.224  0.3712 -0.1185  0.7311
  699SOL    HW2 2799   3.823   4.377   1.319  0.7656  0.2453  0.7717
  699SOL    HW3 2800   3.751   4.333   1.193  0.3233 -0.3602  1.2310
  699SOL    MW4 2801   3.817   4.375   1.232  0.4168 -0.1020  0.8024
  700SOL     OW 2802   4.257   0.008   1.113  0.5639  0.0883 -0.2642
  700SOL    HW2 2803   4.249  -0.082   1.146  0.3031  0.3115  0.2842
  700SOL    HW3 2804   4.182   0.054   1.149  0.6125  0.4935 -0.6720
  700SOL    MW4 2805   4.246   0.002   1.122  0.5360  0.1712 -0.2458
  701SOL     OW 2806   4.024   0.117   1.203  0.0259 -0.2733  0.0590
  701SOL    HW2 2807   4.020   0.136   1.297 -0.2457 -2.6608  0.5573
  701SOL    HW3 2808   3.943   0.068   1.186 -0.1074  0.4695 -1.5077
  701SOL    MW4 2809   4.013   0.113   1.213 -0.0277 -0.4903 -0.0819
  702SOL     OW 2810   3.999   0.401   1.126 -0.4876 -0.2356 -0.1674
  702SOL    HW2 2811   4.005   0.307   1.143 -1.3210 -0.7489 -2.5215
  702SOL    HW3 2812   4.020   0.410   1.033 -2.6727  1.6265 -0.5161
  702SOL    MW4 2813   4.002   0.390   1.116 -0.8860 -0.0576 -0.5240
  703SOL     OW 2814   4.235   0.492   1.235 -0.3967 -0.3602 -0.2414
  703SOL    HW2 2815   4.224   0.481   1.329 -1.4174 -1.7624 -0.4980
  703SOL    HW3 2816   4.150   0.469   1.198  0.1421 -0.3316 -1.5397
  703SOL    MW4 2817   4.222   0.487   1.242 -0.4606 -0.5414 -0.4464
  704SOL     OW 2818   4.262   0.765   1.146 -0.2589 -0.0497  0.4453
  704SOL    HW2 2819   4.239   0.676   1.170 -0.3179 -0.3570 -0.7026
  704SOL    HW3 2820   4.259   0.766   1.050  0.7351  0.9101  0.4038
  704SOL    MW4 2821   4.259   0.754   1.136 -0.1359  0.0364  0.2884
  705SOL     OW 2822   3.984   0.881   1.243 -0.0149 -0.6011 -0.5363
  705SOL    HW2 2823   3.991   0.881   1.339  1.0581  0.0949 -0.5975
  705SOL    HW3 2824   4.065   0.839   1.213  0.6741  1.1176 -1.1692
  705SOL    MW4 2825   3.995   0.875   1.252  0.2174 -0.2825 -0.6278
  706SOL     OW 2826   4.001   1.143   1.113  0.1150  0.2235  0.4307
  706SOL    HW2 2827   3.987   1.053   1.142  0.1188 -0.4831 -1.6250
  706SOL    HW3 2828   3.928   1.192   1.149 -0.5706 -0.8669  0.5403
  706SOL    MW4 2829   3.990   1.137   1.121  0.0250 -0.0136  0.1740
  707SOL     OW 2830   4.226   1.296   1.216 -0.5082 -0.4673 -0.0114
  707SOL    HW2 2831   4.219   1.279   1.310  1.7459 -1.1780  0.0514
  707SOL    HW3 2832   4.145   1.261   1.179 -1.4602 -0.0941  1.6632
  707SOL    MW4 2833   4.214   1.289   1.223 -0.3362 -0.5119  0.2179
  708SOL     OW 2834   4.275   1.550   1.123 -0.4098 -0.2716  0.0567
  708SOL    HW2 2835   4.270   1.458   1.149 -0.2889 -0.3041 -0.0343
  708SOL    HW3 2836   4.362   1.578   1.153  0.2605 -0.6710 -1.4711
  708SOL    MW4 2837   4.286   1.541   1.130 -0.3052 -0.3285 -0.1570
  709SOL     OW 2838   4.059   1.705   1.225  0.2515 -0.4126 -0.1800
  709SOL    HW2 2839   4.088   1.700   1.317  1.7875 -0.6802 -0.6616
  709SOL    HW3 2840   4.124   1.654   1.177  0.9896  1.9560 -1.7662
  709SOL    MW4 2841   4.071   1.698   1.231  0.5517 -0.1354 -0.4529
  710SOL     OW 2842   4.050   1.962   1.141  0.2311  0.0758 -0.2187
  710SOL    HW2 2843   4.053   1.871   1.171  0.8483  0.0558 -0.3294
  710SOL    HW3 2844   4.069   1.957   1.048  2.5535  0.5021  0.1887
  710SOL    MW4 2845   4.053   1.949   1.133  0.6194  0.1295 -0.1798
  711SOL     OW 2846   4.292   2.052   1.235  0.4606 -0.1222 -0.5223
  711SOL    HW2 2847   4.301   2.139   1.195  0.0335  0.2615  0.1847
  711SOL    HW3 2848   4.208   2.020   1.203  0.2272  0.0864 -0.1278
  711SOL    MW4 2849   4.282   2.059   1.226  0.3738 -0.0441 -0.3768
  712SOL     OW 2850   4.310   2.280   1.076  0.1756 -0.2724 -0.3221
  712SOL    HW2 2851   4.234   2.331   1.104  1.0584  0.7809  0.2133
  712SOL    HW3 2852   4.319   2.298   0.983  1.0371  1.3557  0.0395
  712SOL    MW4 2853   4.301   2.289   1.068  0.4058  0.0813 -0.2037
  713SOL     OW 2854   4.046   2.452   1.229  0.1122  0.2952  0.1810
  713SOL    HW2 2855   4.044   2.436   1.324  1.7852 -0.9463  0.0191
  713SOL    HW3 2856   4.066   2.546   1.221 -0.8944  0.5983  1.0492
  713SOL    MW4 2857   4.048   2.463   1.241  0.2007  0.1717  0.2742
  714SOL     OW 2858   4.077   2.723   1.120  0.3793  0.0566  0.1415
  714SOL    HW2 2859   4.001   2.774   1.148 -0.1037 -0.2418 -0.6015
  714SOL    HW3 2860   4.073   2.726   1.024  2.4101  1.6739  0.0807
  714SOL    MW4 2861   4.066   2.730   1.111  0.5836  0.2308  0.0354
  715SOL     OW 2862   4.292   2.841   1.248 -0.2198  0.0626  0.4318
  715SOL    HW2 2863   4.303   2.923   1.199 -0.7042 -0.3798 -0.4311
  715SOL    HW3 2864   4.229   2.791   1.196  0.8476 -1.2862  0.4193
  715SOL    MW4 2865   4.285   2.845   1.234 -0.1426 -0.1738  0.3163
  716SOL     OW 2866   4.257   3.099   1.113  0.4630  0.4181  0.1269
  716SOL    HW2 2867   4.187   3.156   1.145 -0.0012 -1.0583  1.8926
  716SOL    HW3 2868   4.260   3.114   1.019 -2.7016  0.0493 -0.0941
  716SOL    MW4 2869   4.248   3.108   1.105 -0.0157  0.1745  0.3307
  717SOL     OW 2870   4.030   3.251   1.188 -0.0238 -0.1395 -0.1373
  717SOL    HW2 2871   4.037   3.237   1.283 -2.7249  2.1095  0.4807
  717SOL    HW3 2872   3.953   3.199   1.163 -0.0517  0.2596 -0.8659
  717SOL    MW4 2873   4.021   3.242   1.198 -0.3843  0.2100 -0.1520
  718SOL     OW 2874   4.035   3.519   1.101 -0.4006  0.0225  0.0855
  718SOL    HW2 2875   4.036   3.437   1.150 -0.6749 -0.5353 -0.8244
  718SOL    HW3 2876   3.947   3.555   1.116  0.0968  0.7195  1.3973
  718SOL    MW4 2877   4.023   3.513   1.109 -0.3710  0.0410  0.1385
  719SOL     OW 2878   4.254   3.641   1.250  0.1892  0.1752  0.1887
  719SOL    HW2 2879   4.182   3.587   1.217 -0.2262  1.7844 -1.5960
  719SOL    HW3 2880   4.333   3.600   1.216  0.0171 -0.5258  0.6190
  719SOL    MW4 2881   4.255   3.629   1.241  0.1116  0.2949  0.0100
  720SOL     OW 2882   4.216   3.880   1.128  0.2009  0.2145 -0.1653
  720SOL    HW2 2883   4.146   3.929   1.173 -0.5657 -0.6993 -0.3496
  720SOL    HW3 2884   4.212   3.793   1.167  0.8986  0.0132 -0.5542
  720SOL    MW4 2885   4.206   3.875   1.139  0.1922  0.0675 -0.2408
  721SOL     OW 2886   4.022   4.028   1.275  0.0973 -0.1607 -0.2493
  721SOL    HW2 2887   4.032   4.107   1.222 -0.5012 -0.7744 -1.2885
  721SOL    HW3 2888   3.948   3.981   1.235 -0.4113 -0.5897  1.1770
  721SOL    MW4 2889   4.014   4.032   1.263 -0.0482 -0.2975 -0.1981
  722SOL     OW 2890   4.040   4.263   1.128  0.0177  0.5027 -0.3209
  722SOL    HW2 2891   3.956   4.298   1.157  0.0366  1.2084 -1.1241
  722SOL    HW3 2892   4.031   4.254   1.033  0.5668 -0.1911 -0.3147
  722SOL    MW4 2893   4.028   4.266   1.119  0.0920  0.5040 -0.4261
  723SOL     OW 2894   4.253   4.417   1.209  0.0693 -0.0967  0.3642
  723SOL    HW2 2895   4.175   4.367   1.186  0.0984  0.4278 -0.9263
  723SOL    HW3 2896   4.325   4.368   1.169  0.2904  0.0095  0.6286
  723SOL    MW4 2897   4.252   4.404   1.201  0.1025 -0.0138  0.2289
  724SOL     OW 2898   0.208   4.654   1.628 -0.2761  0.0890 -0.2790
  724SOL    HW2 2899   0.288   4.700   1.602  0.4309 -1.7341 -1.4491
  724SOL    HW3 2900   0.137   4.710   1.598  0.5639  0.5359 -1.4684
  724SOL    MW4 2901   0.210   4.668   1.621 -0.0720 -0.0930 -0.5903
  725SOL     OW 2902   4.484   0.123   1.527 -0.0667 -0.2010 -0.1859
  725SOL    HW2 2903   4.401   0.086   1.556 -0.0414 -0.2240 -0.1437
  725SOL    HW3 2904   4.474   0.133   1.432 -0.9137  1.7709  0.0698
  725SOL    MW4 2905   4.471   0.120   1.518 -0.1750  0.0562 -0.1465
  726SOL     OW 2906   4.471   0.386   1.601 -0.0264  0.2690  0.3923
  726SOL    HW2 2907   4.461   0.393   1.696  0.2214  1.2841  0.3423
  726SOL    HW3 2908   4.490   0.293   1.586  0.0862  0.1364  1.3459
  726SOL    MW4 2909   4.472   0.374   1.611  0.0210  0.3854  0.5114
  727SOL     OW 2910   0.199   0.534   1.526  0.3050  0.3113  0.2987
  727SOL    HW2 2911   0.123   0.482   1.552 -0.0726  0.3323 -0.7377
  727SOL    HW3 2912   0.187   0.548   1.432  2.2397 -0.7769 -0.1420
  727SOL    MW4 2913   0.187   0.529   1.517  0.5105  0.1705  0.1038
  728SOL     OW 2914   0.240   0.782   1.663  0.1143  0.1957  0.1560
  728SOL    HW2 2915   0.302   0.835   1.611  0.6547 -0.2764  0.3123
  728SOL    HW3 2916   0.223   0.705   1.609 -0.4230  0.3801  0.0665
  728SOL    MW4 2917   0.246   0.779   1.649  0.1148  0.1578  0.1647
  729SOL     OW 2918   0.001   0.863   1.532 -0.1580 -0.1373  0.8694
  729SOL    HW2 2919  -0.022   0.956   1.540 -0.6804 -0.1853  0.0700
  729SOL    HW3 2920   0.075   0.851   1.591 -0.5449  0.6265  1.5230
  729SOL    MW4 2921   0.008   0.874   1.541 -0.2779 -0.0429  0.8501
  730SOL     OW 2922   4.467   1.131   1.571 -0.6583 -0.2142  0.4399
  730SOL    HW2 2923   4.463   1.128   1.666 -1.6079  2.2797  0.5144
  730SOL    HW3 2924   4.552   1.170   1.551 -0.9237  0.2981  0.2978
  730SOL    MW4 2925   4.478   1.136   1.581 -0.8183  0.1825  0.4311
  731SOL     OW 2926   0.226   1.236   1.509  0.2617  0.3143 -0.0094
  731SOL    HW2 2927   0.234   1.327   1.539 -0.0715  0.6218 -0.8464
  731SOL    HW3 2928   0.222   1.242   1.414  2.0784 -0.7150 -0.1737
  731SOL    MW4 2929   0.226   1.249   1.501  0.4575  0.2190 -0.1414
  732SOL     OW 2930   0.200   1.492   1.624  0.3290  0.1033  0.2631
  732SOL    HW2 2931   0.218   1.497   1.718  0.6140  0.7391  0.1780
  732SOL    HW3 2932   0.122   1.547   1.612  0.8287  0.7563 -0.0082
  732SOL    MW4 2933   0.192   1.500   1.635  0.4325  0.2733  0.2161
  733SOL     OW 2934   4.475   1.663   1.528 -0.1005  0.2473  0.1528
  733SOL    HW2 2935   4.496   1.753   1.556 -0.5656  0.5273 -0.3863
  733SOL    HW3 2936   4.494   1.663   1.434 -1.3952  0.1727 -0.1133
  733SOL    MW4 2937   4.480   1.675   1.519 -0.3328  0.2744  0.0466
  734SOL     OW 2938   4.479   1.931   1.619  0.6461  0.2270 -0.5023
  734SOL    HW2 2939   4.474   1.929   1.714  0.9191 -0.0730 -0.4942
  734SOL    HW3 2940   4.423   2.005   1.594  0.7171  0.4210 -0.1024
  734SOL    MW4 2941   4.471   1.941   1.628  0.6919  0.2130 -0.4485
  735SOL     OW 2942   0.230   2.088   1.536 -0.0541  0.1841  0.2918
  735SOL    HW2 2943   0.158   2.033   1.566 -1.4192  2.3759  1.1957
  735SOL    HW3 2944   0.212   2.101   1.443  0.1450 -0.7172  0.1289
  735SOL    MW4 2945   0.218   2.083   1.528 -0.2080  0.3545  0.3896
  736SOL     OW 2946   0.214   2.376   1.607  0.2636  0.1584 -0.4037
  736SOL    HW2 2947   0.219   2.386   1.702  1.3208  0.8239 -0.5284
  736SOL    HW3 2948   0.219   2.281   1.594  2.3220  0.1724  0.0947
  736SOL    MW4 2949   0.215   2.365   1.618  0.6747  0.2480 -0.3544
  737SOL     OW 2950   0.003   2.454   1.461  0.1682  0.2565  0.1163
  737SOL    HW2 2951  -0.068   2.425   1.518  1.1703  0.1351  1.3305
  737SOL    HW3 2952   0.082   2.440   1.513  0.9881  1.3988 -0.8147
  737SOL    MW4 2953   0.004   2.448   1.476  0.4086  0.3912  0.1537
  738SOL     OW 2954   4.482   2.708   1.591  0.6161  0.0453  0.5629
  738SOL    HW2 2955   4.407   2.760   1.562  1.2437 -0.2254 -1.5596
  738SOL    HW3 2956   4.473   2.624   1.548  2.0012 -0.0810  0.4695
  738SOL    MW4 2957   4.471   2.704   1.582  0.8812 -0.0072  0.2706
  739SOL     OW 2958   0.226   2.826   1.505  0.2198 -0.1211 -0.4760
  739SOL    HW2 2959   0.302   2.776   1.534 -0.2971 -0.0534  1.0397
  739SOL    HW3 2960   0.151   2.781   1.543 -0.2596  1.6641  0.7483
  739SOL    MW4 2961   0.226   2.814   1.514  0.0883  0.1235 -0.1144
  740SOL     OW 2962   0.242   3.095   1.596 -0.0223  0.0907  0.2952
  740SOL    HW2 2963   0.158   3.130   1.565  0.3066 -0.2209 -0.9681
  740SOL    HW3 2964   0.245   3.006   1.559  0.0417 -0.5643  1.8455
  740SOL    MW4 2965   0.231   3.088   1.587  0.0295 -0.0370  0.3331
  741SOL     OW 2966   0.014   3.235   1.494 -0.2020  0.2405  0.5286
  741SOL    HW2 2967   0.018   3.324   1.528 -3.2059  0.2168  1.0826
  741SOL    HW3 2968   0.004   3.246   1.399 -1.3492  0.5425  0.6731
  741SOL    MW4 2969   0.013   3.248   1.486 -0.7497  0.2773  0.6208
  742SOL     OW 2970   0.036   3.495   1.608 -0.5457 -0.5249 -0.4554
  742SOL    HW2 2971   0.058   3.506   1.701  1.6121  0.1757 -1.0429
  742SOL    HW3 2972  -0.051   3.535   1.600 -0.7015 -0.4771  1.2250
  742SOL    MW4 2973   0.027   3.502   1.619 -0.2816 -0.4261 -0.3111
  743SOL     OW 2974   0.222   3.613   1.468 -0.2368  0.6498 -0.1167
  743SOL    HW2 2975   0.225   3.705   1.494 -3.4360  1.0701 -1.0035
  743SOL    HW3 2976   0.158   3.574   1.527 -1.8462 -0.0914 -2.3105
  743SOL    MW4 2977   0.214   3.620   1.479 -0.8712  0.6073 -0.5231
  744SOL     OW 2978   0.198   3.862   1.599  0.4449  0.0204  0.0660
  744SOL    HW2 2979   0.209   3.870   1.693  0.2462 -0.5342  0.1373
  744SOL    HW3 2980   0.264   3.920   1.562  0.5789  0.1737  0.5459
  744SOL    MW4 2981   0.208   3.870   1.606  0.4363 -0.0324  0.1386
  745SOL     OW 2982   4.481   3.987   1.479 -0.4112 -0.6608 -0.1673
  745SOL    HW2 2983   4.482   4.071   1.526 -0.6397 -0.9990  0.4523
  745SOL    HW3 2984   4.559   3.942   1.510 -0.3358 -0.7091 -0.4322
  745SOL    MW4 2985   4.491   3.992   1.490 -0.4311 -0.7114 -0.1205
  746SOL     OW 2986   0.010   4.238   1.593 -0.4646 -0.3589 -0.6835
  746SOL    HW2 2987   0.002   4.246   1.688 -0.6836 -0.9338 -0.6500
  746SOL    HW3 2988  -0.062   4.290   1.558  0.3742  0.9060 -0.5714
  746SOL    MW4 2989  -0.000   4.246   1.601 -0.3830 -0.2680 -0.6642
  747SOL     OW 2990   0.232   4.400   1.508  0.6235 -0.0893  0.5223
  747SOL    HW2 2991   0.167   4.340   1.545 -0.8321  0.0656 -1.6585
  747SOL    HW3 2992   0.219   4.481   1.556 -0.6558 -0.1331  0.2742
  747SOL    MW4 2993   0.221   4.402   1.519  0.2627 -0.0749  0.2018
  748SOL     OW 2994   0.671   4.638   1.639 -0.1626 -0.1216  0.5259
  748SOL    HW2 2995   0.743   4.689   1.603 -0.4548 -0.6760 -0.8864
  748SOL    HW3 2996   0.592   4.687   1.614 -0.3898 -0.7640 -0.0540
  748SOL    MW4 2997   0.670   4.651   1.631 -0.2311 -0.2794  0.2631
  749SOL     OW 2998   0.444   0.106   1.556  0.1688  0.0891 -0.2291
  749SOL    HW2 2999   0.454   0.199   1.574 -0.2727  0.2825 -0.9416
  749SOL    HW3 3000   0.442   0.100   1.460 -0.8009 -0.5380 -0.1812
  749SOL    MW4 3001   0.445   0.117   1.546 -0.0174  0.0319 -0.3169
  750SOL     OW 3002   0.459   0.408   1.601  0.0325 -0.0470 -0.2855
  750SOL    HW2 3003   0.539   0.448   1.566 -0.3663  2.3976  1.4627
  750SOL    HW3 3004   0.388   0.456   1.560 -0.5559 -1.4224 -0.9131
  750SOL    MW4 3005   0.460   0.419   1.591 -0.0977  0.0941 -0.1376
  751SOL     OW 3006   0.710   0.526   1.508  0.2119  0.3226 -0.0895
  751SOL    HW2 3007   0.678   0.615   1.525 -1.2686 -0.2694  0.3443
  751SOL    HW3 3008   0.698   0.513   1.414  0.3813  0.5691 -0.1442
  751SOL    MW4 3009   0.704   0.536   1.498  0.0388  0.2770 -0.0395
  752SOL     OW 3010   0.652   0.781   1.571 -0.0687  0.1105 -0.0754
  752SOL    HW2 3011   0.679   0.766   1.662  0.6320 -1.4287 -0.5244
  752SOL    HW3 3012   0.727   0.825   1.530 -0.6854  1.5299  0.2692
  752SOL    MW4 3013   0.665   0.785   1.578 -0.0576  0.0948 -0.0892
  753SOL     OW 3014   0.432   0.925   1.480 -0.2682  0.0186  0.8295
  753SOL    HW2 3015   0.436   1.003   1.535  2.4425  0.4535  0.0760
  753SOL    HW3 3016   0.511   0.875   1.503 -0.8017 -1.3869 -0.3069
  753SOL    MW4 3017   0.443   0.929   1.490  0.0191 -0.1095  0.5801
  754SOL     OW 3018   0.424   1.109   1.671  0.3386  0.0202 -0.2888
  754SOL    HW2 3019   0.502   1.153   1.636  0.1078  1.1287  0.5661
  754SOL    HW3 3020   0.351   1.152   1.628  0.1648 -0.6643 -0.6891
  754SOL    MW4 3021   0.425   1.120   1.661  0.2852  0.0762 -0.2289
  755SOL     OW 3022   0.645   1.259   1.535 -0.0931  0.2951  0.2505
  755SOL    HW2 3023   0.639   1.354   1.547  0.2328  0.3066  0.3461
  755SOL    HW3 3024   0.626   1.246   1.442 -1.2859  0.3381  0.4847
  755SOL    MW4 3025   0.642   1.270   1.524 -0.2075  0.3023  0.2939
  756SOL     OW 3026   0.648   1.545   1.625  0.4115 -0.8070 -0.3925
  756SOL    HW2 3027   0.719   1.572   1.568  0.4355  1.1928  0.5359
  756SOL    HW3 3028   0.568   1.564   1.575  0.4885 -2.3512 -1.1338
  756SOL    MW4 3029   0.647   1.551   1.611  0.4247 -0.7468 -0.3680
  757SOL     OW 3030   0.421   1.638   1.504  0.4511 -0.1628 -0.1195
  757SOL    HW2 3031   0.426   1.732   1.524  1.8392  0.0210 -1.2647
  757SOL    HW3 3032   0.336   1.611   1.539  0.7523  1.1589  1.7343
  757SOL    MW4 3033   0.411   1.647   1.512  0.6740  0.0360 -0.0260
  758SOL     OW 3034   0.429   1.903   1.588 -0.2798 -0.2014 -0.6703
  758SOL    HW2 3035   0.440   1.903   1.684 -1.6444 -0.0758 -0.5036
  758SOL    HW3 3036   0.358   1.965   1.572 -0.7929 -1.0493 -1.6854
  758SOL    MW4 3037   0.421   1.911   1.599 -0.5275 -0.2966 -0.7821
  759SOL     OW 3038   0.653   2.071   1.511 -0.2012  0.4003  0.4162
  759SOL    HW2 3039   0.735   2.027   1.532 -0.4944  0.0185  0.7758
  759SOL    HW3 3040   0.587   2.025   1.563 -0.3308  2.0455  1.7685
  759SOL    MW4 3041   0.655   2.059   1.521 -0.2570  0.5670  0.6421
  760SOL     OW 3042   0.630   2.335   1.608 -0.3088 -0.0838 -0.1157
  760SOL    HW2 3043   0.551   2.370   1.569 -0.4036 -1.3735 -1.1180
  760SOL    HW3 3044   0.628   2.241   1.587  0.0606 -0.6677  2.2452
  760SOL    MW4 3045   0.619   2.327   1.600 -0.2726 -0.3312  0.0635
  761SOL     OW 3046   0.434   2.461   1.455  0.4759 -0.2444  0.3066
  761SOL    HW2 3047   0.452   2.544   1.499  0.0546 -0.4696  0.9179
  761SOL    HW3 3048   0.350   2.433   1.491 -0.2636 -0.0554 -1.2183
  761SOL    MW4 3049   0.425   2.468   1.466  0.3227 -0.2494  0.1860
  762SOL     OW 3050   0.447   2.689   1.597 -0.2690 -0.4749 -0.4266
  762SOL    HW2 3051   0.446   2.682   1.692 -0.6540 -0.4401 -0.4290
  762SOL    HW3 3052   0.516   2.753   1.578 -0.4941 -0.1548 -0.1538
  762SOL    MW4 3053   0.456   2.696   1.607 -0.3495 -0.4282 -0.3909
  763SOL     OW 3054   0.671   2.849   1.523 -0.5440 -0.1314  0.0785
  763SOL    HW2 3055   0.657   2.939   1.550 -0.4019 -0.0752 -0.0335
  763SOL    HW3 3056   0.649   2.848   1.430  0.7077  0.0769 -0.2259
  763SOL    MW4 3057   0.666   2.861   1.514 -0.3601 -0.0963  0.0235
  764SOL     OW 3058   0.666   3.115   1.583  0.9846  0.3805 -0.2172
  764SOL    HW2 3059   0.746   3.150   1.543  1.1947  0.3256  0.1553
  764SOL    HW3 3060   0.597   3.173   1.553  1.1935  0.5489 -0.3785
  764SOL    MW4 3061   0.668   3.127   1.574  1.0397  0.3955 -0.1892
  765SOL     OW 3062   0.456   3.262   1.449  0.4116 -0.2187 -0.2203
  765SOL    HW2 3063   0.376   3.226   1.487  0.0079  0.8457 -0.0441
  765SOL    HW3 3064   0.443   3.254   1.354 -0.3313  0.8360 -0.2167
  765SOL    MW4 3065   0.444   3.256   1.441  0.2603  0.0608 -0.1966
  766SOL     OW 3066   0.448   3.519   1.586 -0.3990  0.0879 -0.6800
  766SOL    HW2 3067   0.460   3.438   1.536  0.2475 -0.1753 -0.1198
  766SOL    HW3 3068   0.368   3.557   1.551 -0.1755 -0.2891 -1.6431
  766SOL    MW4 3069   0.439   3.513   1.575 -0.2843  0.0033 -0.7333
  767SOL     OW 3070   0.667   3.640   1.464  0.5507 -0.0582  0.0267
  767SOL    HW2 3071   0.735   3.584   1.502 -0.3878 -0.9498  0.4046
  767SOL    HW3 3072   0.585   3.603   1.495 -0.2626 -0.8221 -2.8808
  767SOL    MW4 3073   0.665   3.628   1.473  0.3196 -0.2770 -0.3071
  768SOL     OW 3074   0.646   3.888   1.582 -0.3949  0.3106  1.0117
  768SOL    HW2 3075   0.720   3.930   1.538  0.1859 -0.4035  1.2923
  768SOL    HW3 3076   0.646   3.798   1.548 -3.1022  1.1632 -1.4528
  768SOL    MW4 3077   0.656   3.882   1.572 -0.6755  0.3290  0.7234
  769SOL     OW 3078   0.417   4.017   1.485  0.0521 -0.3841  0.3353
  769SOL    HW2 3079   0.494   3.974   1.523  1.6841  2.1561  0.0555
  769SOL    HW3 3080   0.442   4.035   1.394  0.1853  2.7474  0.9279
  769SOL    MW4 3081   0.431   4.014   1.478  0.2850  0.3648  0.3766
  770SOL     OW 3082   0.440   4.264   1.627 -0.2894 -0.0343 -0.0644
  770SOL    HW2 3083   0.440   4.181   1.579 -0.2013  0.4600 -0.9302
  770SOL    HW3 3084   0.379   4.320   1.579  0.3717  0.7126 -0.0423
  770SOL    MW4 3085   0.432   4.261   1.614 -0.1906  0.1297 -0.1757
  771SOL     OW 3086   0.662   4.392   1.508  0.6658  0.3563  0.3150
  771SOL    HW2 3087   0.582   4.356   1.549  0.6099  0.3261  0.1774
  771SOL    HW3 3088   0.674   4.477   1.551 -0.1620  0.9323 -0.5872
  771SOL    MW4 3089   0.653   4.398   1.519  0.5493  0.4282  0.1779
  772SOL     OW 3090   1.111   4.644   1.635  0.1129 -0.5675  0.4838
  772SOL    HW2 3091   1.117   4.668   1.727 -0.8218  0.4251  0.2971
  772SOL    HW3 3092   1.182   4.693   1.593  0.8084 -1.3519  0.7335
  772SOL    MW4 3093   1.122   4.654   1.642  0.0814 -0.5398  0.4920
  773SOL     OW 3094   0.873   0.114   1.542 -0.1993 -0.6956  0.0803
  773SOL    HW2 3095   0.890   0.204   1.568 -0.2188 -0.1899 -1.6445
  773SOL    HW3 3096   0.940   0.063   1.588 -0.8722  0.0475  1.9335
  773SOL    MW4 3097   0.884   0.119   1.552 -0.2906 -0.5308  0.0974
  774SOL     OW 3098   0.912   0.380   1.634 -0.2210  0.1918  0.6936
  774SOL    HW2 3099   0.899   0.400   1.726 -0.6029  0.7077  0.5319
  774SOL    HW3 3100   0.843   0.430   1.589  0.3182  0.3978  0.0903
  774SOL    MW4 3101   0.901   0.389   1.640 -0.2002  0.2870  0.5926
  775SOL     OW 3102   1.128   0.531   1.512  0.0392 -0.1255  0.7058
  775SOL    HW2 3103   1.111   0.616   1.553 -0.4676 -0.5171  1.3149
  775SOL    HW3 3104   1.056   0.475   1.543 -0.8963 -0.1692 -1.4816
  775SOL    MW4 3105   1.116   0.535   1.522 -0.1510 -0.1829  0.4976
  776SOL     OW 3106   1.113   0.808   1.605 -0.0100 -0.1193 -0.0768
  776SOL    HW2 3107   1.111   0.796   1.700 -0.7715  1.9290  0.1971
  776SOL    HW3 3108   1.193   0.857   1.590  0.2498 -0.6840 -0.5331
  776SOL    MW4 3109   1.123   0.813   1.616 -0.0763  0.0764 -0.1010
  777SOL     OW 3110   0.890   0.879   1.470  0.0574 -0.5259  0.2796
  777SOL    HW2 3111   0.977   0.865   1.506  1.0262  0.2414 -1.6895
  777SOL    HW3 3112   0.894   0.840   1.382 -1.2910  0.3738 -0.1985
  777SOL    MW4 3113   0.902   0.872   1.463  0.0073 -0.3060 -0.0434
  778SOL     OW 3114   0.877   1.135   1.619 -0.0053  0.5132 -0.1243
  778SOL    HW2 3115   0.879   1.052   1.572 -0.0793 -0.3673  1.3846
  778SOL    HW3 3116   0.797   1.178   1.588  0.2195  0.1725 -1.1702
  778SOL    MW4 3117   0.866   1.129   1.609  0.0146  0.3521 -0.0632
  779SOL     OW 3118   1.112   1.318   1.532 -0.0260 -0.4175 -0.1622
  779SOL    HW2 3119   1.194   1.297   1.577 -0.2219  0.8013  0.7690
  779SOL    HW3 3120   1.045   1.272   1.582 -0.1450  0.2542  0.3019
  779SOL    MW4 3121   1.114   1.309   1.544 -0.0674 -0.1681  0.0219
  780SOL     OW 3122   1.093   1.578   1.617  0.4044 -0.3847  0.3674
  780SOL    HW2 3123   1.164   1.623   1.571 -1.5648  1.0920 -1.3205
  780SOL    HW3 3124   1.090   1.491   1.577 -0.1312  0.2885 -1.0751
  780SOL    MW4 3125   1.102   1.573   1.606  0.0739 -0.1010 -0.0457
  781SOL     OW 3126   0.850   1.675   1.506  0.2393  0.5823  0.2308
  781SOL    HW2 3127   0.934   1.648   1.545  0.4335  1.3691  0.3583
  781SOL    HW3 3128   0.868   1.680   1.412 -0.0212 -0.5476  0.1132
  781SOL    MW4 3129   0.863   1.672   1.499  0.2307  0.5372  0.2322
  782SOL     OW 3130   0.872   1.942   1.606  0.2572  0.3920 -0.4396
  782SOL    HW2 3131   0.957   1.980   1.586  0.8350 -1.2590 -1.1523
  782SOL    HW3 3132   0.874   1.854   1.568 -1.4188 -0.0148  0.3301
  782SOL    MW4 3133   0.883   1.935   1.598  0.1123  0.1205 -0.4321
  783SOL     OW 3134   1.118   2.072   1.526  0.3188 -0.4210  0.4824
  783SOL    HW2 3135   1.203   2.037   1.551  0.4312  0.0386  0.7442
  783SOL    HW3 3136   1.117   2.162   1.560 -0.1259 -0.3020  0.1693
  783SOL    MW4 3137   1.129   2.080   1.534  0.2749 -0.3448  0.4758
  784SOL     OW 3138   1.082   2.330   1.630 -0.6005  0.2832 -0.0103
  784SOL    HW2 3139   1.149   2.385   1.590 -0.0765 -0.1664  0.2375
  784SOL    HW3 3140   1.002   2.352   1.583  0.0616 -0.4261 -1.5068
  784SOL    MW4 3141   1.081   2.340   1.618 -0.4441  0.1302 -0.1750
  785SOL     OW 3142   0.852   2.451   1.494 -0.0077  0.6103  0.3723
  785SOL    HW2 3143   0.856   2.542   1.525 -2.0916  0.9598 -0.3101
  785SOL    HW3 3144   0.773   2.415   1.536 -0.8327 -0.0026 -1.6519
  785SOL    MW4 3145   0.842   2.458   1.504 -0.3915  0.5755  0.0153
  786SOL     OW 3146   0.884   2.709   1.607 -0.2001  0.1671 -0.8911
  786SOL    HW2 3147   0.886   2.700   1.702 -1.1398 -0.9847 -0.9751
  786SOL    HW3 3148   0.801   2.752   1.588 -1.4107 -2.3197 -1.3887
  786SOL    MW4 3149   0.873   2.714   1.617 -0.4839 -0.3128 -0.9677
  787SOL     OW 3150   1.114   2.819   1.519  0.1343  0.1930 -0.3086
  787SOL    HW2 3151   1.093   2.912   1.525  1.0221  0.3755  0.1561
  787SOL    HW3 3152   1.035   2.774   1.549 -0.5979  0.7734 -1.3430
  787SOL    MW4 3153   1.101   2.825   1.524  0.1547  0.2937 -0.3839
  788SOL     OW 3154   1.121   3.091   1.594  0.0482 -0.1564  0.2422
  788SOL    HW2 3155   1.136   3.095   1.689  0.5375  0.2950  0.1450
  788SOL    HW3 3156   1.206   3.113   1.555 -0.0920 -0.5554 -0.3039
  788SOL    MW4 3157   1.135   3.094   1.602  0.0942 -0.1497  0.1574
  789SOL     OW 3158   0.908   3.238   1.503  0.1977 -0.1407 -0.1373
  789SOL    HW2 3159   0.987   3.204   1.544 -0.4705 -0.0127  1.2755
  789SOL    HW3 3160   0.914   3.208   1.412  1.0749 -1.4922  0.3431
  789SOL    MW4 3161   0.919   3.230   1.496  0.2252 -0.3021  0.1125
  790SOL     OW 3162   0.874   3.503   1.596  0.1491 -0.2130 -0.5242
  790SOL    HW2 3163   0.950   3.550   1.561  0.3338 -0.2869 -0.2266
  790SOL    HW3 3164   0.888   3.412   1.568 -0.9258  0.1554 -2.3072
  790SOL    MW4 3165   0.886   3.497   1.588  0.0316 -0.1740 -0.7203
  791SOL     OW 3166   1.107   3.629   1.468 -0.4193 -0.1172 -0.1164
  791SOL    HW2 3167   1.179   3.572   1.495 -0.3927 -0.3849 -0.7408
  791SOL    HW3 3168   1.106   3.623   1.373  0.0057  1.4556 -0.2253
  791SOL    MW4 3169   1.116   3.621   1.459 -0.3598  0.0551 -0.2130
  792SOL     OW 3170   1.090   3.875   1.591 -0.1158  0.0874  0.2570
  792SOL    HW2 3171   1.177   3.914   1.576  0.1214 -0.3369  0.5324
  792SOL    HW3 3172   1.093   3.792   1.545  0.2989 -0.8051  1.8628
  792SOL    MW4 3173   1.102   3.869   1.583 -0.0298 -0.0863  0.5053
  793SOL     OW 3174   0.861   4.015   1.477  0.0788  0.0963  0.0357
  793SOL    HW2 3175   0.861   4.108   1.502 -0.3518  0.0368  0.2630
  793SOL    HW3 3176   0.935   3.978   1.524  0.5386  0.4187 -0.4215
  793SOL    MW4 3177   0.871   4.022   1.486  0.0827  0.1311  0.0054
  794SOL     OW 3178   0.902   4.257   1.604 -0.1423  0.9254  0.1525
  794SOL    HW2 3179   0.914   4.263   1.699  1.3590  2.2352 -0.0965
  794SOL    HW3 3180   0.820   4.302   1.587 -0.2751  0.9316  0.8067
  794SOL    MW4 3181   0.893   4.264   1.614  0.0383  1.0991  0.2059
  795SOL     OW 3182   1.128   4.387   1.500  0.3050  0.2525  0.3906
  795SOL    HW2 3183   1.051   4.340   1.532 -0.4525  0.6081 -0.8792
  795SOL    HW3 3184   1.122   4.473   1.540  0.7696 -0.1483  1.3468
  795SOL    MW4 3185   1.117   4.392   1.510  0.2663  0.2465  0.3492
  796SOL     OW 3186   1.537   4.657   1.567 -0.1918 -0.0479  0.1927
  796SOL    HW2 3187   1.540   4.656   1.663  0.2515 -1.2276  0.1753
  796SOL    HW3 3188   1.456   4.704   1.547  0.3225  1.2822  1.1211
  796SOL    MW4 3189   1.527   4.663   1.577 -0.0654 -0.0281  0.3129
  797SOL     OW 3190   1.299   0.137   1.487  0.2894  0.3314 -0.0372
  797SOL    HW2 3191   1.309   0.223   1.529 -0.3342  0.5257 -0.2873
  797SOL    HW3 3192   1.308   0.156   1.393  1.1390 -0.0227 -0.0341
  797SOL    MW4 3193   1.302   0.151   1.480  0.3192  0.3103 -0.0697
  798SOL     OW 3194   1.343   0.377   1.594 -0.0067  0.4883  0.0043
  798SOL    HW2 3195   1.425   0.416   1.564  0.3799  0.0309  0.4663
  798SOL    HW3 3196   1.275   0.438   1.564  0.5756  1.4285  0.5706
  798SOL    MW4 3197   1.345   0.390   1.586  0.1212  0.5520  0.1398
  799SOL     OW 3198   1.567   0.519   1.488  0.1835  0.5589  0.0026
  799SOL    HW2 3199   1.637   0.484   1.543 -1.3558 -1.5435  0.7095
  799SOL    HW3 3200   1.604   0.523   1.400  1.9785  1.8819  0.7848
  799SOL    MW4 3201   1.581   0.515   1.484  0.2172  0.4561  0.1991
  800SOL     OW 3202   1.585   0.806   1.571 -0.4597 -0.0387 -0.2137
  800SOL    HW2 3203   1.573   0.795   1.665 -1.4155  0.3758 -0.2815
  800SOL    HW3 3204   1.564   0.721   1.534  0.9381 -0.4925  0.0392
  800SOL    MW4 3205   1.580   0.794   1.578 -0.4013 -0.0439 -0.1893
  801SOL     OW 3206   1.345   0.963   1.517 -0.0426 -0.2269 -0.1481
  801SOL    HW2 3207   1.424   0.919   1.550  0.2660  0.7211  0.4045
  801SOL    HW3 3208   1.347   0.948   1.423  1.1489  0.3437 -0.2242
  801SOL    MW4 3209   1.356   0.955   1.509  0.1554 -0.0265 -0.0852
  802SOL     OW 3210   1.348   1.235   1.623 -0.0665  0.1254 -0.2656
  802SOL    HW2 3211   1.354   1.215   1.716 -3.4808  0.0470  0.0015
  802SOL    HW3 3212   1.357   1.151   1.579  0.6070  0.0482  0.0029
  802SOL    MW4 3213   1.350   1.222   1.629 -0.4282  0.1048 -0.1950
  803SOL     OW 3214   1.559   1.376   1.488  0.3573  0.2366 -0.0555
  803SOL    HW2 3215   1.485   1.333   1.531 -0.0830  0.9790 -0.0614
  803SOL    HW3 3216   1.547   1.355   1.395  0.5615 -0.2450  0.0230
  803SOL    MW4 3217   1.547   1.367   1.482  0.3262  0.2711 -0.0459
  804SOL     OW 3218   1.531   1.625   1.633 -0.1933 -0.0905  0.3269
  804SOL    HW2 3219   1.524   1.611   1.727  0.4095  0.6035  0.4786
  804SOL    HW3 3220   1.562   1.541   1.598  0.2322 -0.1460  0.8314
  804SOL    MW4 3221   1.534   1.612   1.641 -0.0576 -0.0062  0.4135
  805SOL     OW 3222   1.301   1.721   1.501  0.0561 -0.2219  0.3742
  805SOL    HW2 3223   1.374   1.671   1.538  0.1524 -0.1568  0.2731
  805SOL    HW3 3224   1.308   1.708   1.406  0.4434  0.4724  0.3033
  805SOL    MW4 3225   1.312   1.713   1.493  0.1200 -0.1218  0.3515
  806SOL     OW 3226   1.354   1.964   1.605 -0.5604 -0.4566 -0.2099
  806SOL    HW2 3227   1.373   1.953   1.698  0.9106  0.0031 -0.4458
  806SOL    HW3 3228   1.358   1.875   1.570  2.2217 -0.2857 -0.4281
  806SOL    MW4 3229   1.357   1.951   1.612  0.0007 -0.3734 -0.2698
  807SOL     OW 3230   1.574   2.073   1.486 -0.3275 -0.1062 -0.0361
  807SOL    HW2 3231   1.499   2.026   1.523 -1.0663 -0.2879 -1.6992
  807SOL    HW3 3232   1.564   2.062   1.391  1.7132  0.0290 -0.2787
  807SOL    MW4 3233   1.563   2.066   1.478 -0.1556 -0.1125 -0.2874
  808SOL     OW 3234   1.522   2.326   1.595 -0.2684  0.4775 -0.0832
  808SOL    HW2 3235   1.607   2.370   1.593 -0.1495  0.2089 -1.4692
  808SOL    HW3 3236   1.536   2.245   1.546 -1.1637  0.1217  0.2312
  808SOL    MW4 3237   1.535   2.321   1.589 -0.3709  0.3951 -0.2246
  809SOL     OW 3238   1.302   2.462   1.510 -0.1123  0.3543 -0.2397
  809SOL    HW2 3239   1.308   2.554   1.537 -1.6170  0.3213  0.2750
  809SOL    HW3 3240   1.375   2.419   1.554  0.7276  1.3385 -0.6530
  809SOL    MW4 3241   1.312   2.469   1.519 -0.2000  0.4799 -0.2264
  810SOL     OW 3242   1.332   2.701   1.652  0.1007 -0.0338 -0.1355
  810SOL    HW2 3243   1.388   2.746   1.589  0.2137 -0.6646 -0.4874
  810SOL    HW3 3244   1.244   2.735   1.634 -0.0735 -1.1361 -1.4860
  810SOL    MW4 3245   1.328   2.712   1.641  0.0926 -0.2623 -0.3600
  811SOL     OW 3246   1.521   2.831   1.500  0.0919 -0.0054 -0.0930
  811SOL    HW2 3247   1.595   2.787   1.543 -0.0829 -1.1159 -0.8950
  811SOL    HW3 3248   1.542   2.829   1.407 -0.6114  0.3216 -0.2617
  811SOL    MW4 3249   1.534   2.825   1.494 -0.0241 -0.1087 -0.2211
  812SOL     OW 3250   1.551   3.081   1.599 -0.2407 -0.2427 -0.2984
  812SOL    HW2 3251   1.631   3.125   1.570  0.8916  0.0852  3.0540
  812SOL    HW3 3252   1.555   2.994   1.559  0.2468  0.8244 -2.6072
  812SOL    MW4 3253   1.562   3.075   1.590 -0.0268 -0.0584 -0.1608
  813SOL     OW 3254   1.336   3.203   1.486 -0.5875 -0.0827 -0.0613
  813SOL    HW2 3255   1.342   3.292   1.521 -0.0452 -0.7667  1.5860
  813SOL    HW3 3256   1.410   3.157   1.524  0.4794 -0.6444 -2.7349
  813SOL    MW4 3257   1.347   3.209   1.495 -0.3753 -0.2472 -0.1967
  814SOL     OW 3258   1.311   3.473   1.578  0.2506 -0.4225 -0.1161
  814SOL    HW2 3259   1.316   3.471   1.673 -0.6219 -0.8642 -0.0773
  814SOL    HW3 3260   1.395   3.510   1.550  0.5357 -0.3658  0.8164
  814SOL    MW4 3261   1.323   3.478   1.587  0.1731 -0.4735  0.0120
  815SOL     OW 3262   1.541   3.568   1.498  0.0633 -0.3054 -0.0558
  815SOL    HW2 3263   1.541   3.662   1.517  1.3606 -0.3135  0.0282
  815SOL    HW3 3264   1.549   3.562   1.403 -0.3648 -0.3235 -0.0894
  815SOL    MW4 3265   1.542   3.580   1.488  0.1780 -0.3088 -0.0492
  816SOL     OW 3266   1.586   3.832   1.591 -0.2506 -0.0151 -0.5749
  816SOL    HW2 3267   1.596   3.848   1.685  1.2450 -1.3356 -0.4871
  816SOL    HW3 3268   1.511   3.885   1.566 -0.5236  0.5464  1.3217
  816SOL    MW4 3269   1.578   3.841   1.600 -0.0893 -0.1154 -0.3130
  817SOL     OW 3270   1.363   3.966   1.526 -0.1792 -0.3573 -0.5825
  817SOL    HW2 3271   1.361   4.051   1.569  1.2629 -0.2059 -0.7943
  817SOL    HW3 3272   1.333   3.983   1.437  0.3856 -0.0319 -0.7059
  817SOL    MW4 3273   1.358   3.979   1.520  0.0856 -0.2942 -0.6267
  818SOL     OW 3274   1.347   4.230   1.623  0.2787 -0.2957  0.3921
  818SOL    HW2 3275   1.422   4.276   1.586  0.2695 -1.1514 -0.7105
  818SOL    HW3 3276   1.270   4.275   1.588  0.2591  0.2269  1.0795
  818SOL    MW4 3277   1.347   4.242   1.614  0.2750 -0.3400  0.3374
  819SOL     OW 3278   1.531   4.384   1.510 -0.0506 -0.1953  0.3033
  819SOL    HW2 3279   1.612   4.347   1.545  0.2459 -0.1741 -0.3548
  819SOL    HW3 3280   1.541   4.478   1.523 -1.2876 -0.4012  3.0040
  819SOL    MW4 3281   1.543   4.392   1.516 -0.1748 -0.2198  0.5729
  820SOL     OW 3282   1.996   0.005   1.602  0.9515  0.6371  0.0235
  820SOL    HW2 3283   1.999   0.003   1.698 -0.4770  2.0813  0.1270
  820SOL    HW3 3284   1.925   0.066   1.582 -1.0726 -2.2013 -1.9291
  820SOL    MW4 3285   1.987   0.013   1.612  0.4960  0.4531 -0.2204
  821SOL     OW 3286   1.778   0.153   1.543 -0.1710  0.1617 -0.0079
  821SOL    HW2 3287   1.700   0.103   1.569 -0.8682  1.2259 -0.0437
  821SOL    HW3 3288   1.787   0.137   1.449  1.0578 -1.8920  0.4292
  821SOL    MW4 3289   1.769   0.144   1.534 -0.1009  0.0312  0.0452
  822SOL     OW 3290   1.786   0.432   1.652 -0.0207  0.0005  0.1462
  822SOL    HW2 3291   1.856   0.470   1.599  0.1080 -0.6575 -0.1763
  822SOL    HW3 3292   1.786   0.339   1.627  0.6228 -0.5079  1.9420
  822SOL    MW4 3293   1.796   0.424   1.641  0.0813 -0.1534  0.3406
  823SOL     OW 3294   2.013   0.523   1.495  0.6783  0.0288  0.4007
  823SOL    HW2 3295   2.102   0.492   1.510  0.3228  0.1538  3.0400
  823SOL    HW3 3296   2.017   0.617   1.511  0.0234 -0.0119  0.8519
  823SOL    MW4 3297   2.025   0.531   1.499  0.5453  0.0399  0.8085
  824SOL     OW 3298   2.038   0.791   1.540 -0.3233  0.3137  0.1917
  824SOL    HW2 3299   2.120   0.837   1.522 -0.9954  1.2822 -0.4232
  824SOL    HW3 3300   1.972   0.839   1.491 -1.3256 -0.2518  0.9671
  824SOL    MW4 3301   2.040   0.803   1.531 -0.5438  0.3669  0.2129
  825SOL     OW 3302   1.781   0.971   1.453 -0.2882  0.0497  0.1249
  825SOL    HW2 3303   1.778   1.048   1.510  0.3335 -0.1963  0.4863
  825SOL    HW3 3304   1.708   0.917   1.483 -0.1342  0.0508  0.5073
  825SOL    MW4 3305   1.771   0.974   1.465 -0.1858  0.0173  0.2232
  826SOL     OW 3306   1.770   1.214   1.626 -0.2152  0.2244  0.2345
  826SOL    HW2 3307   1.852   1.255   1.598 -0.7323  0.9329 -0.2683
  826SOL    HW3 3308   1.702   1.257   1.573 -0.8145 -1.0065 -0.0245
  826SOL    MW4 3309   1.772   1.225   1.615 -0.3626  0.1554  0.1340
  827SOL     OW 3310   2.011   1.320   1.518  0.7803  0.0340  0.2773
  827SOL    HW2 3311   2.015   1.413   1.541 -2.5300  0.2427  0.2535
  827SOL    HW3 3312   2.012   1.320   1.422  0.0180  0.0828  0.2717
  827SOL    MW4 3313   2.012   1.332   1.508  0.2432  0.0681  0.2735
  828SOL     OW 3314   2.032   1.600   1.617  0.0328 -0.0473  0.5797
  828SOL    HW2 3315   2.108   1.627   1.564 -0.2242  0.4495  0.4643
  828SOL    HW3 3316   1.958   1.643   1.575 -0.3930 -1.0124  0.3404
  828SOL    MW4 3317   2.033   1.610   1.604 -0.0575 -0.1091  0.5330
  829SOL     OW 3318   1.779   1.704   1.507 -0.0162 -0.0320 -0.3215
  829SOL    HW2 3319   1.698   1.679   1.550  0.3029 -1.3874 -0.4901
  829SOL    HW3 3320   1.757   1.709   1.414  0.5446 -2.3753 -0.6066
  829SOL    MW4 3321   1.766   1.701   1.501  0.0999 -0.5199 -0.3812
  830SOL     OW 3322   1.822   1.982   1.580 -0.3980 -0.0748  0.4286
  830SOL    HW2 3323   1.822   1.891   1.553 -0.6987 -0.6291  2.2410
  830SOL    HW3 3324   1.739   2.017   1.547 -0.1511 -0.3742 -0.5122
  830SOL    MW4 3325   1.811   1.975   1.572 -0.4053 -0.1875  0.5435
  831SOL     OW 3326   2.054   2.097   1.484  0.1417 -0.2046 -0.0824
  831SOL    HW2 3327   2.123   2.032   1.499  0.1333 -0.5845 -1.6705
  831SOL    HW3 3328   1.975   2.055   1.518  0.1058 -1.1194 -1.2606
  831SOL    MW4 3329   2.053   2.083   1.491  0.1359 -0.3755 -0.4475
  832SOL     OW 3330   2.015   2.338   1.626  0.5448  0.1048 -0.3531
  832SOL    HW2 3331   2.017   2.312   1.719 -0.6772 -1.3057 -0.7103
  832SOL    HW3 3332   2.026   2.256   1.578  0.2175  0.7061 -1.4710
  832SOL    MW4 3333   2.017   2.324   1.632  0.3405 -0.0019 -0.5479
  833SOL     OW 3334   1.772   2.445   1.554  0.3677  0.0945 -0.3305
  833SOL    HW2 3335   1.857   2.410   1.581  0.0603  0.2591  0.8982
  833SOL    HW3 3336   1.777   2.451   1.459  1.5317 -0.4157 -0.3052
  833SOL    MW4 3337   1.784   2.441   1.545  0.4808  0.0491 -0.1650
  834SOL     OW 3338   1.756   2.709   1.619  0.6521 -0.1146 -0.1147
  834SOL    HW2 3339   1.839   2.745   1.586  1.1391 -1.5946 -0.5862
  834SOL    HW3 3340   1.760   2.616   1.595 -0.5347 -0.4901  1.1007
  834SOL    MW4 3341   1.768   2.702   1.611  0.5599 -0.3593 -0.0167
  835SOL     OW 3342   1.975   2.817   1.502  0.1989  0.7338 -0.1820
  835SOL    HW2 3343   2.009   2.903   1.526  1.2997  0.4584 -0.7026
  835SOL    HW3 3344   1.986   2.812   1.407  1.3333 -0.4572 -0.0192
  835SOL    MW4 3345   1.981   2.827   1.493  0.4938  0.5403 -0.2291
  836SOL     OW 3346   2.007   3.078   1.595  0.2524  0.0491 -0.4467
  836SOL    HW2 3347   2.019   3.068   1.690 -0.5622  0.5367 -0.2923
  836SOL    HW3 3348   2.082   3.130   1.567  0.2327  0.3311  0.0115
  836SOL    MW4 3349   2.019   3.083   1.604  0.1423  0.1507 -0.3660
  837SOL     OW 3350   1.780   3.205   1.490  0.1122 -0.2519  0.0322
  837SOL    HW2 3351   1.771   3.288   1.537  0.8473  0.0725 -0.3887
  837SOL    HW3 3352   1.860   3.166   1.525 -1.0740 -1.5575  1.3891
  837SOL    MW4 3353   1.789   3.211   1.501  0.0528 -0.3812  0.1558
  838SOL     OW 3354   1.801   3.463   1.588 -0.6433 -0.4808 -0.1547
  838SOL    HW2 3355   1.811   3.469   1.683 -0.5236  1.3815 -0.2733
  838SOL    HW3 3356   1.713   3.496   1.570 -1.0326 -1.7393 -0.6120
  838SOL    MW4 3357   1.791   3.468   1.598 -0.6790 -0.4010 -0.2308
  839SOL     OW 3358   1.999   3.629   1.483  0.0046  0.0745 -0.2086
  839SOL    HW2 3359   2.069   3.580   1.526 -0.3626 -0.1862  0.0916
  839SOL    HW3 3360   1.919   3.583   1.507 -0.2260  0.0328 -1.0169
  839SOL    MW4 3361   1.998   3.616   1.492 -0.0743  0.0343 -0.2757
  840SOL     OW 3362   2.009   3.876   1.593  0.0600  0.0239  0.6130
  840SOL    HW2 3363   2.078   3.924   1.547 -0.5425  0.8734  0.6013
  840SOL    HW3 3364   2.009   3.789   1.552  0.3893  0.3658 -0.1172
  840SOL    MW4 3365   2.018   3.870   1.581  0.0238  0.1810  0.5151
  841SOL     OW 3366   1.798   4.014   1.481  0.1773  0.0467  0.4002
  841SOL    HW2 3367   1.874   3.984   1.531 -0.2472  1.1654  1.7639
  841SOL    HW3 3368   1.726   3.958   1.511  0.0384  0.3541  0.6471
  841SOL    MW4 3369   1.798   4.003   1.491  0.1030  0.2351  0.6126
  842SOL     OW 3370   1.761   4.262   1.627 -0.1797  0.1363  0.0019
  842SOL    HW2 3371   1.841   4.307   1.599  0.7914 -0.8441  1.1548
  842SOL    HW3 3372   1.761   4.180   1.578 -0.6548  0.2874 -0.2508
  842SOL    MW4 3373   1.772   4.257   1.617 -0.1142  0.0267  0.1206
  843SOL     OW 3374   1.979   4.406   1.504 -0.1068 -0.3785  0.5666
  843SOL    HW2 3375   2.052   4.352   1.534  0.4605 -0.4058 -0.8392
  843SOL    HW3 3376   1.996   4.492   1.543  1.1702 -0.1378 -0.5015
  843SOL    MW4 3377   1.991   4.410   1.513  0.1366 -0.3505  0.2401
  844SOL     OW 3378   2.471   4.648   1.597  0.4271 -0.5658  0.2182
  844SOL    HW2 3379   2.479   4.677   1.688 -1.7155 -1.2028  0.6316
  844SOL    HW3 3380   2.392   4.693   1.564  0.2043 -1.6788 -0.7922
  844SOL    MW4 3381   2.462   4.658   1.604  0.1152 -0.7967  0.1396
  845SOL     OW 3382   2.231   0.107   1.489 -0.3227 -0.0599  0.2281
  845SOL    HW2 3383   2.161   0.050   1.522  1.3491 -1.1636  1.9554
  845SOL    HW3 3384   2.235   0.087   1.395 -1.1356 -1.3193  0.4414
  845SOL    MW4 3385   2.222   0.097   1.481 -0.2096 -0.3717  0.4840
  846SOL     OW 3386   2.247   0.398   1.553  0.1509  0.4202 -0.1463
  846SOL    HW2 3387   2.243   0.387   1.648 -0.1328  1.6184 -0.0052
  846SOL    HW3 3388   2.241   0.310   1.517  1.0873 -0.1034  0.9778
  846SOL    MW4 3389   2.246   0.385   1.561  0.2370  0.5092  0.0206
  847SOL     OW 3390   2.499   0.529   1.487  0.2474  0.6653  0.4075
  847SOL    HW2 3391   2.573   0.474   1.513  0.3227  0.1167 -0.9043
  847SOL    HW3 3392   2.422   0.482   1.519  0.3837  0.4843  0.4722
  847SOL    MW4 3393   2.498   0.515   1.495  0.2756  0.5690  0.2428
  848SOL     OW 3394   2.506   0.779   1.576  0.2688  0.1971 -0.2175
  848SOL    HW2 3395   2.420   0.810   1.548  0.7591  1.0855 -0.7671
  848SOL    HW3 3396   2.507   0.687   1.552 -1.1504 -0.2151  1.2816
  848SOL    MW4 3397   2.495   0.771   1.569  0.1464  0.2599 -0.0923
  849SOL     OW 3398   2.278   0.912   1.475 -0.1073 -0.0809  0.6126
  849SOL    HW2 3399   2.280   0.998   1.518  0.5263 -0.4792  1.3956
  849SOL    HW3 3400   2.292   0.932   1.382 -3.2227  0.9396  0.2874
  849SOL    MW4 3401   2.280   0.926   1.468 -0.4346  0.0012  0.6729
  850SOL     OW 3402   2.258   1.180   1.590  0.1190  0.2089  0.0644
  850SOL    HW2 3403   2.260   1.176   1.686 -0.1804  0.5963  0.0863
  850SOL    HW3 3404   2.181   1.232   1.570  0.5692  0.7024 -0.3781
  850SOL    MW4 3405   2.248   1.186   1.600  0.1388  0.3251  0.0089
  851SOL     OW 3406   2.471   1.312   1.477  0.2062 -0.1305 -0.4574
  851SOL    HW2 3407   2.394   1.269   1.515 -0.1189  0.5074 -0.3863
  851SOL    HW3 3408   2.459   1.305   1.383 -0.5328  1.0018 -0.4558
  851SOL    MW4 3409   2.459   1.305   1.470  0.0658  0.1031 -0.4478
  852SOL     OW 3410   2.491   1.543   1.623 -0.5552  0.4919 -0.1281
  852SOL    HW2 3411   2.566   1.597   1.600 -0.0088  0.2069  0.9376
  852SOL    HW3 3412   2.497   1.467   1.566  1.3882 -0.7333  1.6172
  852SOL    MW4 3413   2.502   1.540   1.613 -0.2270  0.2927  0.2428
  853SOL     OW 3414   2.269   1.648   1.483  0.2034  0.3692  0.0580
  853SOL    HW2 3415   2.351   1.610   1.516 -0.0641 -0.2493  0.0110
  853SOL    HW3 3416   2.281   1.652   1.388 -0.7934 -2.0438 -0.1890
  853SOL    MW4 3417   2.282   1.644   1.475  0.0367 -0.0309  0.0193
  854SOL     OW 3418   2.260   1.912   1.554 -0.1390  0.2456 -0.1066
  854SOL    HW2 3419   2.261   1.925   1.649  2.2673  0.7270 -0.1785
  854SOL    HW3 3420   2.249   1.818   1.542  0.2295  0.1063  0.6447
  854SOL    MW4 3421   2.259   1.902   1.565  0.2272  0.2908 -0.0169
  855SOL     OW 3422   2.494   2.054   1.494  0.0576 -0.0030 -0.3132
  855SOL    HW2 3423   2.425   1.999   1.532  1.2298 -1.3224 -0.0174
  855SOL    HW3 3424   2.481   2.047   1.400 -0.7390  0.4451 -0.2376
  855SOL    MW4 3425   2.483   2.046   1.487  0.1070 -0.1180 -0.2642
  856SOL     OW 3426   2.476   2.331   1.581 -0.5864 -0.1383  0.0880
  856SOL    HW2 3427   2.456   2.326   1.674 -2.2665 -1.9015 -0.3341
  856SOL    HW3 3428   2.479   2.240   1.552  1.5654  0.3340 -1.2672
  856SOL    MW4 3429   2.474   2.318   1.589 -0.5240 -0.3088 -0.1465
  857SOL     OW 3430   2.232   2.449   1.503 -0.1639 -0.2363  0.0176
  857SOL    HW2 3431   2.319   2.418   1.526 -0.0676 -0.5196 -0.7227
  857SOL    HW3 3432   2.172   2.397   1.556  0.0622 -0.7922 -0.2743
  857SOL    MW4 3433   2.235   2.438   1.513 -0.1214 -0.3469 -0.1186
  858SOL     OW 3434   2.233   2.717   1.570  0.1897 -0.5242  0.5675
  858SOL    HW2 3435   2.234   2.626   1.539  0.2502  0.5598 -2.9134
  858SOL    HW3 3436   2.144   2.747   1.552  0.3558  0.2868  1.0896
  858SOL    MW4 3437   2.221   2.709   1.563  0.2196 -0.2747  0.1773
  859SOL     OW 3438   2.452   2.847   1.488 -0.1983 -0.2841  0.0329
  859SOL    HW2 3439   2.454   2.916   1.554  0.4427 -0.7171  0.4725
  859SOL    HW3 3440   2.381   2.788   1.516 -0.0264 -0.3863  0.2580
  859SOL    MW4 3441   2.443   2.848   1.500 -0.0911 -0.3550  0.1206
  860SOL     OW 3442   2.426   3.082   1.618  0.4890  0.1009  0.3443
  860SOL    HW2 3443   2.510   3.124   1.605  0.0447  1.1464  0.8457
  860SOL    HW3 3444   2.362   3.144   1.583 -0.0195 -1.0560 -0.8355
  860SOL    MW4 3445   2.428   3.096   1.612  0.3631  0.0865  0.2549
  861SOL     OW 3446   2.225   3.236   1.509 -0.2136  0.6181 -0.3896
  861SOL    HW2 3447   2.211   3.324   1.542  0.9337  0.4536  0.5568
  861SOL    HW3 3448   2.231   3.247   1.414 -0.3008  1.5217 -0.2950
  861SOL    MW4 3449   2.224   3.249   1.501 -0.0741  0.7157 -0.2521
  862SOL     OW 3450   2.213   3.500   1.615  0.3644 -0.1250  0.0700
  862SOL    HW2 3451   2.242   3.508   1.706 -1.0630 -0.0040  0.5389
  862SOL    HW3 3452   2.286   3.532   1.563  0.9741  0.3707  1.2043
  862SOL    MW4 3453   2.226   3.505   1.620  0.2565 -0.0434  0.2817
  863SOL     OW 3454   2.451   3.571   1.483  0.0454 -0.3680 -0.1077
  863SOL    HW2 3455   2.529   3.537   1.527  0.2412 -0.2547 -0.3702
  863SOL    HW3 3456   2.443   3.661   1.514  0.5726 -0.0697 -0.8303
  863SOL    MW4 3457   2.460   3.578   1.493  0.1409 -0.3138 -0.2375
  864SOL     OW 3458   2.432   3.835   1.568 -0.0181  0.2018  0.2699
  864SOL    HW2 3459   2.423   3.833   1.663  0.3753 -1.3137  0.2856
  864SOL    HW3 3460   2.507   3.893   1.553  0.6580 -0.4830  0.9457
  864SOL    MW4 3461   2.441   3.842   1.578  0.1228 -0.0887  0.3613
  865SOL     OW 3462   2.238   4.026   1.501 -0.2081 -0.1528 -0.5399
  865SOL    HW2 3463   2.302   3.962   1.535 -0.0943 -0.6073 -1.6033
  865SOL    HW3 3464   2.250   4.023   1.406 -2.5133 -0.9679 -0.8237
  865SOL    MW4 3465   2.248   4.017   1.493 -0.4976 -0.3200 -0.7178
  866SOL     OW 3466   2.194   4.272   1.633  0.3586 -0.0756 -0.0799
  866SOL    HW2 3467   2.262   4.325   1.591  0.8990 -0.7881 -0.1068
  866SOL    HW3 3468   2.192   4.191   1.583 -0.6786  0.0270 -0.2226
  866SOL    MW4 3469   2.203   4.268   1.621  0.2930 -0.1559 -0.1024
  867SOL     OW 3470   2.395   4.405   1.517 -0.4242  0.2422  0.0648
  867SOL    HW2 3471   2.416   4.496   1.538  2.4073 -0.4406  0.4088
  867SOL    HW3 3472   2.416   4.397   1.424 -2.3090  0.3608 -0.3877
  867SOL    MW4 3473   2.401   4.416   1.507 -0.2995  0.1678  0.0505
  868SOL     OW 3474   2.934   4.642   1.543  0.5974  0.3051  0.0825
  868SOL    HW2 3475   2.933   4.636   1.638 -0.7356  1.3240  0.1422
  868SOL    HW3 3476   2.849   4.680   1.520  1.2223  0.8197 -1.4626
  868SOL    MW4 3477   2.923   4.646   1.552  0.5040  0.5074 -0.1135
  869SOL     OW 3478   2.711   0.122   1.488 -0.5250 -0.4921  0.0262
  869SOL    HW2 3479   2.708   0.211   1.522  0.5663 -0.2792 -0.4050
  869SOL    HW3 3480   2.632   0.081   1.521 -0.4522  0.2874  1.1890
  869SOL    MW4 3481   2.700   0.128   1.497 -0.3715 -0.3612  0.1227
  870SOL     OW 3482   2.709   0.381   1.605  0.1864 -0.5600 -0.5223
  870SOL    HW2 3483   2.716   0.377   1.700  0.7668 -0.7568 -0.5723
  870SOL    HW3 3484   2.793   0.417   1.577  0.7568 -2.2901 -1.0957
  870SOL    MW4 3485   2.721   0.385   1.614  0.3383 -0.8143 -0.6044
  871SOL     OW 3486   2.912   0.515   1.462  0.3529 -0.0714 -0.1499
  871SOL    HW2 3487   2.910   0.605   1.496 -1.2247  0.0504 -0.5050
  871SOL    HW3 3488   2.910   0.525   1.367  1.9092 -0.4629 -0.2314
  871SOL    MW4 3489   2.911   0.529   1.454  0.3500 -0.1070 -0.2074
  872SOL     OW 3490   2.922   0.770   1.570 -0.7542 -0.2780 -0.0704
  872SOL    HW2 3491   2.913   0.763   1.665  1.7487  2.6746  0.4371
  872SOL    HW3 3492   2.865   0.843   1.546 -1.2425 -0.9030 -0.8359
  872SOL    MW4 3493   2.913   0.778   1.580 -0.4883  0.0291 -0.1044
  873SOL     OW 3494   2.726   0.949   1.485 -0.1360  0.0342 -0.1015
  873SOL    HW2 3495   2.660   0.886   1.511  0.5499 -0.4484  0.4949
  873SOL    HW3 3496   2.756   0.919   1.399  0.8495 -0.9935  0.5908
  873SOL    MW4 3497   2.721   0.937   1.477  0.0844 -0.1651  0.0685
  874SOL     OW 3498   2.702   1.230   1.593  0.5054  0.3779 -0.1620
  874SOL    HW2 3499   2.712   1.139   1.566 -1.0548 -0.3709  1.6901
  874SOL    HW3 3500   2.632   1.264   1.538 -0.3013 -0.1381  0.5388
  874SOL    MW4 3501   2.694   1.223   1.583  0.1929  0.2110  0.1749
  875SOL     OW 3502   2.955   1.333   1.490 -0.0614  0.3028  0.0464
  875SOL    HW2 3503   3.021   1.273   1.523  0.5047  0.7513 -0.2762
  875SOL    HW3 3504   2.872   1.293   1.516  0.3014 -0.8483 -0.5501
  875SOL    MW4 3505   2.952   1.320   1.498  0.0613  0.2100 -0.0749
  876SOL     OW 3506   2.929   1.587   1.601  0.0309 -0.3447  0.0757
  876SOL    HW2 3507   2.850   1.625   1.562 -1.4161 -1.4713  1.8023
  876SOL    HW3 3508   2.939   1.503   1.558 -0.7705 -0.9861  1.1174
  876SOL    MW4 3509   2.920   1.581   1.590 -0.2656 -0.5779  0.4410
  877SOL     OW 3510   2.713   1.698   1.477 -0.0976 -0.0204 -0.1512
  877SOL    HW2 3511   2.725   1.790   1.502  0.6201  0.0909 -0.8746
  877SOL    HW3 3512   2.682   1.702   1.387  1.8466 -0.5204 -0.8745
  877SOL    MW4 3513   2.711   1.711   1.468  0.2537 -0.0716 -0.3420
  878SOL     OW 3514   2.758   1.976   1.562  0.1100  0.2640  0.0519
  878SOL    HW2 3515   2.757   1.955   1.655 -0.9949  0.5781  0.1179
  878SOL    HW3 3516   2.672   2.015   1.545  0.6279  1.0131 -0.9131
  878SOL    MW4 3517   2.747   1.979   1.572  0.0327  0.4044 -0.0666
  879SOL     OW 3518   2.973   2.124   1.498 -0.5586  0.2885 -0.2158
  879SOL    HW2 3519   2.963   2.209   1.541  0.4721 -0.2549  1.1266
  879SOL    HW3 3520   2.889   2.079   1.514 -0.2087  0.1074  1.2401
  879SOL    MW4 3521   2.960   2.129   1.506 -0.3762  0.1929  0.1533
  880SOL     OW 3522   2.925   2.357   1.649  0.4598  0.0204  0.5122
  880SOL    HW2 3523   2.910   2.337   1.741  0.4998  0.4762  0.6225
  880SOL    HW3 3524   2.841   2.390   1.617  0.8136  1.1778  0.7477
  880SOL    MW4 3525   2.912   2.359   1.657  0.5119  0.2334  0.5578
  881SOL     OW 3526   2.701   2.457   1.474 -0.0791  0.0353 -0.3378
  881SOL    HW2 3527   2.697   2.543   1.517  0.5883 -0.4882  0.7873
  881SOL    HW3 3528   2.623   2.411   1.506  1.0142 -0.7681  1.2416
  881SOL    MW4 3529   2.690   2.462   1.484  0.1531 -0.1395  0.0190
  882SOL     OW 3530   2.691   2.718   1.587 -0.1446 -0.1342 -0.3209
  882SOL    HW2 3531   2.762   2.780   1.569 -0.0871 -0.0290  0.2548
  882SOL    HW3 3532   2.611   2.766   1.562 -0.2249  0.7649  1.5970
  882SOL    MW4 3533   2.690   2.733   1.581 -0.1476 -0.0014  0.0080
  883SOL     OW 3534   2.906   2.862   1.539 -0.3402 -0.1432  0.3017
  883SOL    HW2 3535   2.978   2.814   1.580 -1.6654 -1.5612  1.0049
  883SOL    HW3 3536   2.908   2.948   1.580  1.0328 -0.1178  0.2091
  883SOL    MW4 3537   2.916   2.867   1.549 -0.3338 -0.3269  0.3824
  884SOL     OW 3538   2.896   3.117   1.628 -0.1392 -0.0138 -0.1203
  884SOL    HW2 3539   2.901   3.141   1.721  2.6495 -2.0735  0.3673
  884SOL    HW3 3540   2.972   3.159   1.589 -0.4586 -0.4060 -1.1630
  884SOL    MW4 3541   2.907   3.125   1.635  0.1867 -0.3371 -0.1935
  885SOL     OW 3542   2.647   3.199   1.529 -0.2286 -0.2254  0.3097
  885SOL    HW2 3543   2.737   3.167   1.533 -1.0018 -2.6666 -0.2764
  885SOL    HW3 3544   2.632   3.216   1.436 -0.0175  1.3039  0.5496
  885SOL    MW4 3545   2.657   3.197   1.517 -0.3028 -0.3459  0.2640
  886SOL     OW 3546   2.682   3.452   1.627 -0.0627  0.2342  0.1398
  886SOL    HW2 3547   2.659   3.462   1.720 -0.1066  0.0322  0.1503
  886SOL    HW3 3548   2.670   3.359   1.609  2.0125 -0.1249  0.4962
  886SOL    MW4 3549   2.678   3.441   1.637  0.2053  0.1605  0.1882
  887SOL     OW 3550   2.894   3.601   1.545  0.0269  0.0220 -0.2965
  887SOL    HW2 3551   2.830   3.546   1.590 -1.0417  0.7975 -0.8376
  887SOL    HW3 3552   2.891   3.572   1.454  0.1564  0.3206 -0.3983
  887SOL    MW4 3553   2.885   3.590   1.539 -0.0970  0.1636 -0.3814
  888SOL     OW 3554   2.879   3.887   1.586 -0.3788 -0.0448  0.4662
  888SOL    HW2 3555   2.796   3.919   1.549 -1.4875 -0.7671  2.2237
  888SOL    HW3 3556   2.881   3.794   1.565 -0.5098 -0.2359  1.2584
  888SOL    MW4 3557   2.868   3.879   1.578 -0.5424 -0.1655  0.8026
  889SOL     OW 3558   2.657   4.007   1.483  0.3721  0.5017  0.0410
  889SOL    HW2 3559   2.656   4.094   1.522 -3.3004  0.5875 -0.1258
  889SOL    HW3 3560   2.656   4.023   1.388 -1.2917  0.2813  0.0198
  889SOL    MW4 3561   2.657   4.021   1.476 -0.3319  0.4840  0.0162
  890SOL     OW 3562   2.639   4.276   1.588  0.8081 -0.1640  0.5679
  890SOL    HW2 3563   2.715   4.320   1.551  1.3562 -0.9110  0.8027
  890SOL    HW3 3564   2.564   4.331   1.562  1.3984  0.4537  0.1640
  890SOL    MW4 3565   2.639   4.289   1.580  0.9582 -0.1812  0.5455
  891SOL     OW 3566   2.856   4.395   1.467  0.0805 -0.0727 -0.4573
  891SOL    HW2 3567   2.883   4.485   1.489 -1.8158  0.5543 -0.6169
  891SOL    HW3 3568   2.849   4.396   1.371  0.0685 -0.3909 -0.4580
  891SOL    MW4 3569   2.859   4.407   1.457 -0.1714 -0.0319 -0.4784
  892SOL     OW 3570   3.331   4.664   1.590 -0.0677  0.2530 -0.0211
  892SOL    HW2 3571   3.411   4.699   1.550  0.2581  0.8600  1.1385
  892SOL    HW3 3572   3.330   4.571   1.565  0.8722  0.2976 -0.2357
  892SOL    MW4 3573   3.342   4.656   1.581  0.0994  0.3395  0.1037
  893SOL     OW 3574   3.133   0.124   1.432 -0.8820  0.3502  0.1642
  893SOL    HW2 3575   3.205   0.082   1.479 -1.4310 -0.5210  0.2377
  893SOL    HW3 3576   3.055   0.077   1.460 -1.5284  1.5074  0.3389
  893SOL    MW4 3577   3.132   0.112   1.442 -1.0397  0.3879  0.1968
  894SOL     OW 3578   3.150   0.385   1.536 -0.1180 -0.1740 -0.0669
  894SOL    HW2 3579   3.140   0.296   1.502  0.6858 -0.5912  0.7701
  894SOL    HW3 3580   3.066   0.428   1.517 -1.0042 -1.5186  0.7172
  894SOL    MW4 3581   3.137   0.379   1.529 -0.1287 -0.4064  0.1471
  895SOL     OW 3582   3.392   0.536   1.499  0.1980 -0.0344 -0.2416
  895SOL    HW2 3583   3.312   0.485   1.512  2.2559 -3.4043 -0.3044
  895SOL    HW3 3584   3.399   0.546   1.404  2.0489 -3.5909 -0.5769
  895SOL    MW4 3585   3.382   0.531   1.488  0.7133 -0.9483 -0.2941
  896SOL     OW 3586   3.396   0.785   1.620  0.4967  0.4339  0.3891
  896SOL    HW2 3587   3.378   0.775   1.713 -0.5707 -2.3532 -0.0680
  896SOL    HW3 3588   3.410   0.696   1.588 -0.5314  1.2076 -2.3860
  896SOL    MW4 3589   3.396   0.772   1.628  0.2203  0.1683 -0.0373
  897SOL     OW 3590   3.176   0.882   1.494  0.3565  0.1195 -0.9251
  897SOL    HW2 3591   3.243   0.842   1.550  0.3838  0.4365 -0.7231
  897SOL    HW3 3592   3.097   0.829   1.509  0.4018  0.1152 -0.6922
  897SOL    MW4 3593   3.174   0.870   1.503  0.3662  0.1608 -0.8677
  898SOL     OW 3594   3.132   1.146   1.583 -0.0074 -0.1649  0.7380
  898SOL    HW2 3595   3.162   1.145   1.674  0.7166 -0.1414  0.5025
  898SOL    HW3 3596   3.132   1.054   1.556  1.3798 -0.0248  0.2446
  898SOL    MW4 3597   3.136   1.134   1.591  0.2711 -0.1433  0.6418
  899SOL     OW 3598   3.326   1.304   1.485 -0.2478 -0.1418  0.6203
  899SOL    HW2 3599   3.409   1.270   1.520  0.2433  1.5690  1.1998
  899SOL    HW3 3600   3.259   1.246   1.520  0.4170  0.3922  2.8774
  899SOL    MW4 3601   3.328   1.292   1.494 -0.0954  0.1544  0.9944
  900SOL     OW 3602   3.335   1.572   1.557 -0.0281  0.1536  0.5649
  900SOL    HW2 3603   3.320   1.546   1.648 -1.3651 -0.1847  0.2550
  900SOL    HW3 3604   3.357   1.491   1.511  2.5274  0.5948  0.9455
  900SOL    MW4 3605   3.336   1.558   1.563  0.1326  0.1671  0.5744
  901SOL     OW 3606   3.140   1.725   1.459  0.0598  0.3076 -0.1090
  901SOL    HW2 3607   3.215   1.675   1.490 -0.3383 -0.2132  0.0199
  901SOL    HW3 3608   3.065   1.687   1.505 -0.2991  0.7280 -0.3427
  901SOL    MW4 3609   3.140   1.713   1.469 -0.0401  0.2944 -0.1228
  902SOL     OW 3610   3.174   1.970   1.606 -0.4257  0.2316 -0.0026
  902SOL    HW2 3611   3.155   1.883   1.570 -0.8096  0.3315 -0.0524
  902SOL    HW3 3612   3.103   2.025   1.573 -1.1087  0.1986  1.3615
  902SOL    MW4 3613   3.162   1.966   1.597 -0.5662  0.2403  0.1708
  903SOL     OW 3614   3.406   2.095   1.511 -0.2843 -0.3897 -0.5412
  903SOL    HW2 3615   3.333   2.043   1.545 -0.5464  0.6109  0.4770
  903SOL    HW3 3616   3.393   2.095   1.416 -0.6642 -1.5967 -0.4948
  903SOL    MW4 3617   3.395   2.088   1.503 -0.3688 -0.4172 -0.4008
  904SOL     OW 3618   3.387   2.344   1.638  0.6358  0.3611 -0.5106
  904SOL    HW2 3619   3.443   2.389   1.575  2.2541 -1.0069 -0.0636
  904SOL    HW3 3620   3.394   2.252   1.616  0.2086 -0.0115  0.8530
  904SOL    MW4 3621   3.395   2.338   1.627  0.7930  0.1316 -0.2717
  905SOL     OW 3622   3.147   2.442   1.523 -0.1961  0.3081  0.1201
  905SOL    HW2 3623   3.222   2.415   1.576  0.1083  0.6622 -0.1292
  905SOL    HW3 3624   3.071   2.423   1.578  0.0835  0.1185  0.4472
  905SOL    MW4 3625   3.147   2.436   1.537 -0.1192  0.3297  0.1304
  906SOL     OW 3626   3.142   2.710   1.606  0.3096 -0.0766  0.0460
  906SOL    HW2 3627   3.220   2.760   1.583 -0.9952  1.0893 -2.0238
  906SOL    HW3 3628   3.156   2.624   1.566  0.0712  0.4850 -1.2780
  906SOL    MW4 3629   3.154   2.705   1.598  0.1061  0.1512 -0.4016
  907SOL     OW 3630   3.387   2.841   1.542 -1.2870  0.2960 -0.1187
  907SOL    HW2 3631   3.354   2.929   1.560 -1.0304  0.5951 -1.0691
  907SOL    HW3 3632   3.391   2.836   1.446  0.0552 -0.2359 -0.0428
  907SOL    MW4 3633   3.383   2.852   1.531 -1.0765  0.2651 -0.2340
  908SOL     OW 3634   3.333   3.110   1.606 -0.0230  0.1810  0.0308
  908SOL    HW2 3635   3.352   3.092   1.698  1.0451 -0.9017 -0.3963
  908SOL    HW3 3636   3.414   3.146   1.571 -0.4156  0.5480 -0.5073
  908SOL    MW4 3637   3.346   3.112   1.614  0.0660  0.0865 -0.0966
  909SOL     OW 3638   3.113   3.241   1.520 -0.5005  0.1436 -0.0294
  909SOL    HW2 3639   3.196   3.205   1.550 -0.7808  0.2403  0.8593
  909SOL    HW3 3640   3.116   3.232   1.425  0.3229 -0.2914  0.0374
  909SOL    MW4 3641   3.124   3.235   1.511 -0.4289  0.0989  0.0966
  910SOL     OW 3642   3.158   3.504   1.594  0.4984 -0.6283 -0.6991
  910SOL    HW2 3643   3.137   3.418   1.557 -0.9245  0.1353 -1.7108
  910SOL    HW3 3644   3.081   3.558   1.576  0.8826  0.5366  0.9985
  910SOL    MW4 3645   3.145   3.500   1.586  0.3614 -0.3736 -0.6086
  911SOL     OW 3646   3.376   3.624   1.486  0.6362 -0.2245 -0.0872
  911SOL    HW2 3647   3.447   3.577   1.531  0.3455 -0.0144  0.5960
  911SOL    HW3 3648   3.296   3.588   1.523  0.3835 -0.4771 -0.8802
  911SOL    MW4 3649   3.375   3.613   1.497  0.5648 -0.2301 -0.1017
  912SOL     OW 3650   3.319   3.877   1.599  0.0669 -0.1802  0.4287
  912SOL    HW2 3651   3.244   3.908   1.548  1.5044  0.0654 -1.6049
  912SOL    HW3 3652   3.326   3.784   1.578 -0.0537 -0.3462  1.1185
  912SOL    MW4 3653   3.310   3.869   1.589  0.2403 -0.1695  0.2513
  913SOL     OW 3654   3.106   4.001   1.456 -0.0438 -0.3344  0.0700
  913SOL    HW2 3655   3.102   4.093   1.480  0.1615  0.0468 -1.3125
  913SOL    HW3 3656   3.030   3.961   1.498 -1.1305  0.8125 -0.8149
  913SOL    MW4 3657   3.096   4.008   1.465 -0.1605 -0.1330 -0.2291
  914SOL     OW 3658   3.095   4.263   1.557 -0.2030  0.4963  0.0752
  914SOL    HW2 3659   3.094   4.247   1.651 -0.2741 -0.0910 -0.0237
  914SOL    HW3 3660   3.009   4.299   1.538 -0.2757  0.3914  0.2000
  914SOL    MW4 3661   3.084   4.265   1.567 -0.2222  0.4048  0.0786
  915SOL     OW 3662   3.338   4.411   1.484 -0.2756  0.1442 -0.3352
  915SOL    HW2 3663   3.254   4.370   1.507  0.0802 -0.0280  0.6833
  915SOL    HW3 3664   3.331   4.430   1.390 -0.8051 -1.3934 -0.6137
  915SOL    MW4 3665   3.326   4.408   1.475 -0.2985 -0.0815 -0.2375
  916SOL     OW 3666   3.810   4.616   1.582 -0.0401  0.0875  0.4954
  916SOL    HW2 3667   3.814   4.626   1.677  0.7478  0.4144  0.4283
  916SOL    HW3 3668   3.880   4.672   1.549 -0.9242  0.7233 -0.3300
  916SOL    MW4 3669   3.820   4.625   1.591 -0.0527  0.2146  0.3777
  917SOL     OW 3670   3.567   0.069   1.471 -0.2479 -0.1300  0.1893
  917SOL    HW2 3671   3.650   0.023   1.486 -0.8928 -1.5063 -0.4012
  917SOL    HW3 3672   3.562   0.078   1.376 -1.0570 -0.5624  0.1936
  917SOL    MW4 3673   3.578   0.064   1.460 -0.4396 -0.3686  0.1119
  918SOL     OW 3674   3.555   0.329   1.611 -0.0253  0.1981 -0.6808
  918SOL    HW2 3675   3.568   0.250   1.558  1.0870 -0.3898  0.4373
  918SOL    HW3 3676   3.493   0.381   1.561  0.0901 -0.8817 -1.9875
  918SOL    MW4 3677   3.549   0.325   1.598  0.1369 -0.0219 -0.7057
  919SOL     OW 3678   3.760   0.469   1.513  0.1960 -0.4926  0.2467
  919SOL    HW2 3679   3.680   0.427   1.543 -1.8065  2.7523 -0.3557
  919SOL    HW3 3680   3.760   0.456   1.418  0.5681 -0.7825  0.2845
  919SOL    MW4 3681   3.749   0.462   1.504 -0.0191 -0.1028  0.1723
  920SOL     OW 3682   3.795   0.744   1.564 -0.1844 -0.0649 -0.3360
  920SOL    HW2 3683   3.716   0.794   1.548 -0.4087 -0.8647 -1.7840
  920SOL    HW3 3684   3.768   0.652   1.557  0.9647 -0.3359 -1.3213
  920SOL    MW4 3685   3.781   0.738   1.561 -0.0622 -0.2062 -0.6570
  921SOL     OW 3686   3.588   0.936   1.493 -0.2685  0.3864 -0.6726
  921SOL    HW2 3687   3.509   0.888   1.518 -0.6447 -0.0852 -2.7082
  921SOL    HW3 3688   3.589   0.933   1.397  2.0919  0.5811 -0.6799
  921SOL    MW4 3689   3.578   0.929   1.484 -0.0064  0.3498 -0.9421
  922SOL     OW 3690   3.570   1.208   1.572 -0.0670 -0.4377 -0.4732
  922SOL    HW2 3691   3.657   1.240   1.550  0.5015 -1.0150  0.9052
  922SOL    HW3 3692   3.565   1.121   1.532  0.3953 -0.8590  0.3951
  922SOL    MW4 3693   3.581   1.201   1.564  0.0689 -0.5695 -0.1769
  923SOL     OW 3694   3.816   1.327   1.523  0.3996  0.0305 -0.1191
  923SOL    HW2 3695   3.900   1.282   1.538 -0.6915 -1.8363  0.5631
  923SOL    HW3 3696   3.825   1.409   1.572  2.1718  0.2871 -0.8179
  923SOL    MW4 3697   3.829   1.332   1.532  0.4892 -0.1819 -0.1212
  924SOL     OW 3698   3.822   1.591   1.615 -0.0887  0.3494 -0.0953
  924SOL    HW2 3699   3.813   1.571   1.708  1.7742  2.6807  0.6195
  924SOL    HW3 3700   3.733   1.616   1.588 -0.8451 -1.2860  0.7804
  924SOL    MW4 3701   3.809   1.591   1.623  0.0575  0.4412  0.1146
  925SOL     OW 3702   3.587   1.676   1.488 -0.3492 -0.1811  0.1205
  925SOL    HW2 3703   3.498   1.643   1.502  0.7945 -3.7165 -0.4266
  925SOL    HW3 3704   3.600   1.669   1.394 -0.0051  1.8637 -0.0126
  925SOL    MW4 3705   3.577   1.671   1.477 -0.1531 -0.3778  0.0306
  926SOL     OW 3706   3.591   1.920   1.600 -0.1252  0.1120 -0.1273
  926SOL    HW2 3707   3.589   1.834   1.558  0.0013 -0.3614  0.8041
  926SOL    HW3 3708   3.546   1.978   1.540  0.1186 -0.5331 -0.9406
  926SOL    MW4 3709   3.585   1.916   1.587 -0.0765 -0.0356 -0.1116
  927SOL     OW 3710   3.851   2.042   1.535 -0.0834 -0.3265 -0.0018
  927SOL    HW2 3711   3.835   2.131   1.568  0.9111 -0.2134  0.1765
  927SOL    HW3 3712   3.774   1.992   1.564 -1.1330  0.6967 -0.9548
  927SOL    MW4 3713   3.838   2.047   1.543 -0.0906 -0.1767 -0.1041
  928SOL     OW 3714   3.805   2.308   1.600  0.3274 -0.0961  0.2612
  928SOL    HW2 3715   3.798   2.321   1.695  0.1527  0.3050  0.1939
  928SOL    HW3 3716   3.886   2.352   1.575  0.7068 -0.7563  0.3223
  928SOL    MW4 3717   3.814   2.316   1.609  0.3543 -0.1302  0.2605
  929SOL     OW 3718   3.604   2.460   1.497  0.0465 -0.0727 -0.0630
  929SOL    HW2 3719   3.615   2.550   1.528  0.5461 -0.1829  0.0903
  929SOL    HW3 3720   3.688   2.417   1.517 -0.6775 -0.9559  1.1159
  929SOL    MW4 3721   3.617   2.466   1.503  0.0167 -0.2036  0.1127
  930SOL     OW 3722   3.615   2.719   1.612 -0.2545  0.2631 -0.2607
  930SOL    HW2 3723   3.620   2.716   1.707 -0.4596  1.0803 -0.2261
  930SOL    HW3 3724   3.532   2.761   1.593 -0.0959  0.3400 -0.7988
  930SOL    MW4 3725   3.605   2.724   1.622 -0.2606  0.3812 -0.3270
  931SOL     OW 3726   3.873   2.870   1.526 -0.0417  0.2056  0.0239
  931SOL    HW2 3727   3.934   2.804   1.559  0.9031  1.0401 -0.0406
  931SOL    HW3 3728   3.786   2.838   1.552  0.3287 -1.5050 -0.7742
  931SOL    MW4 3729   3.869   2.857   1.533  0.1318  0.0901 -0.0899
  932SOL     OW 3730   3.819   3.126   1.599 -0.2379 -0.4343 -0.1361
  932SOL    HW2 3731   3.894   3.170   1.559  0.8299 -1.0508  1.1256
  932SOL    HW3 3732   3.834   3.033   1.580 -1.6710 -0.4002 -1.4843
  932SOL    MW4 3733   3.831   3.119   1.591 -0.2861 -0.5109 -0.1476
  933SOL     OW 3734   3.571   3.219   1.521  0.1915  0.1605 -0.4662
  933SOL    HW2 3735   3.657   3.183   1.541  1.0865  2.2604 -0.5169
  933SOL    HW3 3736   3.561   3.207   1.427  0.3460 -0.2318 -0.4336
  933SOL    MW4 3737   3.581   3.212   1.511  0.3302  0.3858 -0.4686
  934SOL     OW 3738   3.565   3.485   1.626  0.3288 -0.0865  0.0421
  934SOL    HW2 3739   3.648   3.514   1.587  0.3906 -0.9928 -0.5092
  934SOL    HW3 3740   3.558   3.392   1.602 -1.0930  0.1073 -0.3569
  934SOL    MW4 3741   3.575   3.476   1.618  0.1495 -0.1807 -0.0832
  935SOL     OW 3742   3.785   3.610   1.511 -0.1631 -0.2176 -0.1321
  935SOL    HW2 3743   3.866   3.566   1.534  0.5993  1.5285  0.5724
  935SOL    HW3 3744   3.794   3.698   1.547 -2.1265  0.1743 -0.5410
  935SOL    MW4 3745   3.797   3.616   1.519 -0.3216  0.0646 -0.0931
  936SOL     OW 3746   3.792   3.854   1.625  0.0947  0.1124 -0.2647
  936SOL    HW2 3747   3.864   3.909   1.593  0.2982  0.3387  0.5745
  936SOL    HW3 3748   3.716   3.884   1.577  0.3780  0.5355 -0.4544
  936SOL    MW4 3749   3.792   3.865   1.615  0.1590  0.1981 -0.1789
  937SOL     OW 3750   3.560   3.971   1.495  0.3381  0.1912  0.1055
  937SOL    HW2 3751   3.562   4.064   1.515 -0.8332  0.3118 -0.3124
  937SOL    HW3 3752   3.473   3.942   1.524 -0.0951 -0.3378 -1.6801
  937SOL    MW4 3753   3.548   3.979   1.502  0.1264  0.1373 -0.1851
  938SOL     OW 3754   3.574   4.248   1.557  0.2080 -0.5237 -0.2993
  938SOL    HW2 3755   3.565   4.271   1.649 -1.7387 -0.0377 -0.5895
  938SOL    HW3 3756   3.509   4.301   1.512  0.6704 -1.2527 -1.8779
  938SOL    MW4 3757   3.564   4.258   1.563  0.0122 -0.5560 -0.5460
  939SOL     OW 3758   3.826   4.356   1.498  0.0581 -0.0401 -0.6410
  939SOL    HW2 3759   3.745   4.305   1.506 -0.2640  0.5310 -0.2690
  939SOL    HW3 3760   3.807   4.438   1.543  1.1804 -0.3011  0.3295
  939SOL    MW4 3761   3.813   4.360   1.505  0.1638  0.0014 -0.4638
  940SOL     OW 3762   4.228   0.002   1.587 -0.1832  0.3218  0.1433
  940SOL    HW2 3763   4.246  -0.023   1.677  1.8410  0.3566 -0.2318
  940SOL    HW3 3764   4.231  -0.080   1.538  1.9407  0.6693 -0.3714
  940SOL    MW4 3765   4.231  -0.012   1.592  0.3638  0.3724  0.0257
  941SOL     OW 3766   4.002   0.152   1.481 -0.8692 -0.3223 -0.1884
  941SOL    HW2 3767   4.004   0.236   1.526  0.4183 -0.3467 -0.1657
  941SOL    HW3 3768   4.077   0.104   1.518 -1.2844 -1.2732 -0.5724
  941SOL    MW4 3769   4.012   0.157   1.492 -0.7548 -0.4510 -0.2360
  942SOL     OW 3770   3.997   0.385   1.631 -0.0412 -0.0203  0.3897
  942SOL    HW2 3771   4.003   0.386   1.727 -1.8067 -0.3286  0.5242
  942SOL    HW3 3772   3.907   0.411   1.613  0.3547  0.2542 -1.2055
  942SOL    MW4 3773   3.986   0.389   1.642 -0.2220 -0.0248  0.1969
  943SOL     OW 3774   4.221   0.495   1.517  0.2050 -0.1339  0.0135
  943SOL    HW2 3775   4.149   0.451   1.562  0.3621 -0.1310  0.2669
  943SOL    HW3 3776   4.300   0.453   1.550  0.3467  0.2395  0.1492
  943SOL    MW4 3777   4.222   0.484   1.527  0.2446 -0.0842  0.0648
  944SOL     OW 3778   4.249   0.755   1.627 -0.2819 -0.1541  0.5240
  944SOL    HW2 3779   4.242   0.670   1.584 -0.4211  0.5583 -0.8672
  944SOL    HW3 3780   4.326   0.796   1.588 -0.5447  0.5972  0.7817
  944SOL    MW4 3781   4.258   0.749   1.616 -0.3343  0.0390  0.3743
  945SOL     OW 3782   4.032   0.888   1.525  0.2416 -0.0347  0.3933
  945SOL    HW2 3783   4.110   0.863   1.575 -1.5944 -1.4397  2.6748
  945SOL    HW3 3784   3.967   0.821   1.547 -2.0628  1.8980 -0.3437
  945SOL    MW4 3785   4.034   0.876   1.534 -0.3047  0.0349  0.5969
  946SOL     OW 3786   4.029   1.149   1.591  0.0626 -0.3608 -0.5470
  946SOL    HW2 3787   4.008   1.144   1.684  0.9151 -0.5566 -0.3594
  946SOL    HW3 3788   4.019   1.059   1.559  1.2355 -0.5839 -0.3130
  946SOL    MW4 3789   4.025   1.137   1.599  0.3300 -0.4162 -0.4914
  947SOL     OW 3790   4.243   1.288   1.504 -0.6125 -0.4154  0.6261
  947SOL    HW2 3791   4.176   1.230   1.540 -0.3412 -0.6098  0.8194
  947SOL    HW3 3792   4.326   1.250   1.533 -0.3711 -0.7865 -0.5195
  947SOL    MW4 3793   4.245   1.275   1.512 -0.5450 -0.4900  0.5004
  948SOL     OW 3794   4.259   1.526   1.658 -0.1043  0.8109  0.2069
  948SOL    HW2 3795   4.261   1.431   1.641 -1.4642  0.9194 -0.6160
  948SOL    HW3 3796   4.342   1.558   1.622  0.2630 -0.0324  0.2887
  948SOL    MW4 3797   4.270   1.517   1.651 -0.2360  0.7141  0.1091
  949SOL     OW 3798   4.069   1.687   1.525 -0.4068 -0.0458  0.1982
  949SOL    HW2 3799   4.129   1.627   1.569  0.6149  0.3098 -0.6820
  949SOL    HW3 3800   3.981   1.656   1.549  0.1171 -1.2855  0.5393
  949SOL    MW4 3801   4.065   1.675   1.534 -0.2027 -0.1624  0.1272
  950SOL     OW 3802   4.099   1.947   1.621  0.2957 -0.0122  0.1821
  950SOL    HW2 3803   4.098   1.855   1.595  2.2513  0.0650 -0.2868
  950SOL    HW3 3804   4.019   1.984   1.582  0.1338 -1.2419 -0.6842
  950SOL    MW4 3805   4.088   1.940   1.612  0.5317 -0.1643  0.0058
  951SOL     OW 3806   4.292   2.112   1.524 -0.0486  0.2186  0.2277
  951SOL    HW2 3807   4.221   2.052   1.546 -0.1098  0.0815 -0.3401
  951SOL    HW3 3808   4.302   2.105   1.429  1.8018 -1.0003  0.4789
  951SOL    MW4 3809   4.284   2.103   1.514  0.1874  0.0396  0.1860
  952SOL     OW 3810   4.278   2.361   1.620  0.0951 -0.3013  0.2665
  952SOL    HW2 3811   4.268   2.350   1.714 -1.6352 -1.0640  0.0079
  952SOL    HW3 3812   4.278   2.272   1.585 -0.4949  0.0135 -0.5673
  952SOL    MW4 3813   4.277   2.348   1.628 -0.2112 -0.3605  0.1224
  953SOL     OW 3814   4.045   2.448   1.515 -0.5354 -0.4183  0.0957
  953SOL    HW2 3815   4.052   2.537   1.548  0.4179 -0.1296 -0.8569
  953SOL    HW3 3816   4.126   2.406   1.542 -1.4877 -1.3792  1.5848
  953SOL    MW4 3817   4.056   2.454   1.523 -0.5350 -0.5071  0.1664
  954SOL     OW 3818   4.047   2.690   1.623  0.1768  0.5385 -0.7171
  954SOL    HW2 3819   4.035   2.695   1.718  1.0445 -0.8394 -0.5228
  954SOL    HW3 3820   4.123   2.746   1.606  1.1991 -0.7037 -0.3390
  954SOL    MW4 3821   4.055   2.698   1.634  0.4263  0.1926 -0.6417
  955SOL     OW 3822   4.262   2.840   1.537 -0.0394 -0.0661 -0.1502
  955SOL    HW2 3823   4.254   2.935   1.549 -2.0284 -0.3366  0.8327
  955SOL    HW3 3824   4.280   2.829   1.444  1.5346  1.3333 -0.0490
  955SOL    MW4 3825   4.264   2.851   1.526 -0.0939  0.0827 -0.0072
  956SOL     OW 3826   4.273   3.125   1.584  0.0292 -0.2035  0.2747
  956SOL    HW2 3827   4.287   3.133   1.679  2.7202  1.9099 -0.2457
  956SOL    HW3 3828   4.356   3.152   1.545 -1.3983  0.0303 -2.7429
  956SOL    MW4 3829   4.286   3.129   1.592  0.1960  0.1063 -0.1920
  957SOL     OW 3830   4.034   3.277   1.480 -0.3082  0.0530  0.0568
  957SOL    HW2 3831   4.029   3.367   1.512  1.7621  0.4875 -0.7533
  957SOL    HW3 3832   4.115   3.243   1.519  0.1343 -0.6985 -1.4831
  957SOL    MW4 3833   4.044   3.284   1.490  0.0234  0.0114 -0.2532
  958SOL     OW 3834   4.018   3.518   1.600 -0.0158  0.1121 -0.3702
  958SOL    HW2 3835   4.015   3.499   1.694  0.3096  3.6198  0.3876
  958SOL    HW3 3836   4.110   3.535   1.581 -0.2134  0.3495 -1.1485
  958SOL    MW4 3837   4.029   3.517   1.610  0.0014  0.6063 -0.3728
  959SOL     OW 3838   4.288   3.593   1.525 -0.3887  0.0864 -0.4719
  959SOL    HW2 3839   4.284   3.683   1.555  0.1820  0.4088 -1.3348
  959SOL    HW3 3840   4.289   3.600   1.429 -0.4005 -0.8295 -0.5434
  959SOL    MW4 3841   4.288   3.606   1.516 -0.3147  0.0081 -0.5951
  960SOL     OW 3842   4.286   3.860   1.613 -0.3503 -0.5244 -0.1195
  960SOL    HW2 3843   4.210   3.902   1.572  0.5382  0.9959 -0.2503
  960SOL    HW3 3844   4.361   3.894   1.565  0.6133  0.2440  1.8748
  960SOL    MW4 3845   4.285   3.870   1.601 -0.1059 -0.2222  0.1262
  961SOL     OW 3846   4.023   3.959   1.554  0.0612 -0.3131  0.0196
  961SOL    HW2 3847   4.045   4.043   1.594 -0.1432  0.4781 -1.4570
  961SOL    HW3 3848   4.027   3.976   1.459  0.0555 -1.9770 -0.3040
  961SOL    MW4 3849   4.026   3.972   1.547  0.0334 -0.4280 -0.2178
  962SOL     OW 3850   4.057   4.238   1.606  0.2837 -0.2042  0.0423
  962SOL    HW2 3851   4.039   4.231   1.699 -0.2082 -1.1962 -0.1179
  962SOL    HW3 3852   3.971   4.257   1.566 -0.3262 -4.0986 -0.6415
  962SOL    MW4 3853   4.043   4.240   1.613  0.1383 -0.8483 -0.0691
  963SOL     OW 3854   4.278   4.403   1.493 -0.3520  0.0545 -0.0312
  963SOL    HW2 3855   4.193   4.370   1.523 -0.6931  0.5409 -0.4514
  963SOL    HW3 3856   4.272   4.399   1.398  0.2697 -0.3324 -0.0561
  963SOL    MW4 3857   4.266   4.398   1.484 -0.3147  0.0672 -0.0898
  964SOL     OW 3858   0.216   4.667   1.939  0.4697 -0.1196 -0.1168
  964SOL    HW2 3859   0.294   4.708   1.975  1.4942 -1.9215 -0.2238
  964SOL    HW3 3860   0.231   4.665   1.845  0.4850 -0.8538 -0.1001
  964SOL    MW4 3861   0.228   4.672   1.931  0.6069 -0.4544 -0.1287
  965SOL     OW 3862   4.467   0.129   2.004  0.4397  0.5095  0.6098
  965SOL    HW2 3863   4.460   0.219   1.971 -1.6718  0.4523  0.8634
  965SOL    HW3 3864   4.554   0.100   1.975 -0.9218  0.7344 -4.1053
  965SOL    MW4 3865   4.478   0.137   1.996 -0.0186  0.5316  0.0212
  966SOL     OW 3866   4.447   0.391   1.891 -0.5428 -0.3552  0.2055
  966SOL    HW2 3867   4.387   0.453   1.932  1.6882  1.2085  1.2286
  966SOL    HW3 3868   4.534   0.422   1.916  0.7790 -1.4081 -2.8527
  966SOL    MW4 3869   4.450   0.403   1.900 -0.0744 -0.2878 -0.0629
  967SOL     OW 3870   0.188   0.475   1.991 -0.1693 -0.1075  0.2305
  967SOL    HW2 3871   0.267   0.438   1.950 -0.5800 -1.8632  0.9655
  967SOL    HW3 3872   0.183   0.564   1.957  1.7323 -0.2115 -0.4027
  967SOL    MW4 3873   0.198   0.482   1.981  0.0274 -0.3529  0.2440
  968SOL     OW 3874   0.199   0.762   1.947  1.0752  0.0684 -0.1999
  968SOL    HW2 3875   0.276   0.803   1.987  0.9715  0.1463 -0.0785
  968SOL    HW3 3876   0.218   0.763   1.853  0.5127  1.6080 -0.3256
  968SOL    MW4 3877   0.212   0.768   1.939  0.9873  0.2818 -0.2004
  969SOL     OW 3878   4.476   0.923   2.019 -0.7345  0.3800 -0.0639
  969SOL    HW2 3879   4.402   0.867   1.994  0.2357 -0.7146 -0.4792
  969SOL    HW3 3880   4.554   0.875   1.992  0.1645  1.2989  0.8374
  969SOL    MW4 3881   4.476   0.909   2.012 -0.4873  0.3569  0.0002
  970SOL     OW 3882   4.448   1.133   1.846 -0.0470 -0.2710  0.0628
  970SOL    HW2 3883   4.378   1.181   1.888  0.5854  0.9407 -0.2505
  970SOL    HW3 3884   4.464   1.058   1.904  0.4530  1.0761  1.6935
  970SOL    MW4 3885   4.441   1.129   1.859  0.1025  0.0665  0.2367
  971SOL     OW 3886   0.174   1.249   1.981 -0.2666  0.4898 -0.1653
  971SOL    HW2 3887   0.174   1.338   1.945 -0.6490  0.2735 -0.7090
  971SOL    HW3 3888   0.101   1.206   1.937 -0.5022  0.1044  0.5979
  971SOL    MW4 3889   0.164   1.255   1.970 -0.3481  0.4104 -0.1364
  972SOL     OW 3890   0.222   1.508   1.897  0.5603  0.5788 -0.0079
  972SOL    HW2 3891   0.301   1.550   1.931 -0.5372  1.4824  1.5107
  972SOL    HW3 3892   0.152   1.570   1.917 -0.6123 -0.4459 -0.8649
  972SOL    MW4 3893   0.223   1.522   1.904  0.2608  0.5629  0.0796
  973SOL     OW 3894   0.017   1.682   1.988 -0.8199  0.0173 -0.1126
  973SOL    HW2 3895   0.026   1.679   2.083 -1.2285  1.4522 -0.0184
  973SOL    HW3 3896  -0.067   1.638   1.970 -0.6127 -0.4950  0.1608
  973SOL    MW4 3897   0.007   1.676   1.998 -0.8464  0.1391 -0.0640
  974SOL     OW 3898   4.488   1.942   1.898 -0.3108  0.0589  0.1914
  974SOL    HW2 3899   4.414   1.979   1.945  0.4706  0.9262  0.7677
  974SOL    HW3 3900   4.494   1.851   1.930 -1.0780  0.0105  0.1895
  974SOL    MW4 3901   4.479   1.935   1.909 -0.3090  0.1670  0.2671
  975SOL     OW 3902   0.245   2.075   1.974 -0.3015  0.1273 -0.0134
  975SOL    HW2 3903   0.223   2.163   1.942 -1.7325  0.3957  1.5810
  975SOL    HW3 3904   0.169   2.022   1.950 -0.0525 -0.3478  0.2554
  975SOL    MW4 3905   0.232   2.080   1.967 -0.4575  0.1001  0.2326
  976SOL     OW 3906   0.188   2.338   1.889 -0.6701 -0.0686 -0.2761
  976SOL    HW2 3907   0.273   2.370   1.921 -0.1452 -2.1786  0.5073
  976SOL    HW3 3908   0.124   2.396   1.931  0.3285  1.0233 -0.2229
  976SOL    MW4 3909   0.191   2.350   1.899 -0.4691 -0.2031 -0.1657
  977SOL     OW 3910   4.450   2.457   2.031  0.0603  0.2369 -0.0487
  977SOL    HW2 3911   4.464   2.438   2.124  0.8336  1.7050  0.1411
  977SOL    HW3 3912   4.465   2.551   2.023 -0.0048  0.1197 -1.6728
  977SOL    MW4 3913   4.454   2.467   2.042  0.1535  0.4153 -0.2379
  978SOL     OW 3914   4.473   2.701   1.888  0.1073  0.1057  0.2921
  978SOL    HW2 3915   4.392   2.747   1.908  0.3373  1.1278 -1.1150
  978SOL    HW3 3916   4.479   2.702   1.793  1.3396 -0.7195  0.3498
  978SOL    MW4 3917   4.463   2.707   1.878  0.3002  0.1314  0.1140
  979SOL     OW 3918   0.203   2.854   1.982 -0.3033 -0.4414 -0.1366
  979SOL    HW2 3919   0.197   2.944   1.952  0.3578 -0.2484  0.2954
  979SOL    HW3 3920   0.127   2.811   1.944 -0.7868  0.3704 -0.1000
  979SOL    MW4 3921   0.192   2.860   1.973 -0.2799 -0.3090 -0.0747
  980SOL     OW 3922   0.232   3.148   1.887  0.2675  0.4261 -0.1361
  980SOL    HW2 3923   0.314   3.163   1.933  0.2205  0.8585 -0.1926
  980SOL    HW3 3924   0.253   3.160   1.795  0.1214  0.6379 -0.1431
  980SOL    MW4 3925   0.245   3.152   1.881  0.2420  0.5112 -0.1444
  981SOL     OW 3926   0.017   3.252   2.014  0.3329  0.2096  0.1890
  981SOL    HW2 3927  -0.050   3.214   1.958  1.5159  0.0272 -1.1117
  981SOL    HW3 3928   0.097   3.204   1.993  0.7344 -0.0917  2.2755
  981SOL    MW4 3929   0.019   3.241   2.004  0.5419  0.1459  0.2925
  982SOL     OW 3930   0.033   3.505   1.892  0.2668 -0.0322 -0.3417
  982SOL    HW2 3931   0.101   3.551   1.941  0.0553  0.6642 -0.6895
  982SOL    HW3 3932   0.046   3.412   1.912  0.5782  0.1988  0.5227
  982SOL    MW4 3933   0.044   3.499   1.901  0.2800  0.0901 -0.2735
  983SOL     OW 3934   0.261   3.631   1.998  0.3656 -0.1087  0.0716
  983SOL    HW2 3935   0.261   3.612   2.092  0.1126 -0.9184 -0.0942
  983SOL    HW3 3936   0.320   3.566   1.960  0.8544  0.5260 -0.2710
  983SOL    MW4 3937   0.269   3.620   2.005  0.3967 -0.1321  0.0045
  984SOL     OW 3938   0.244   3.871   1.875 -0.0582 -0.0744  0.3769
  984SOL    HW2 3939   0.315   3.931   1.901 -0.6001  0.1199  1.3978
  984SOL    HW3 3940   0.268   3.787   1.913 -0.2647 -0.0638  0.5269
  984SOL    MW4 3941   0.257   3.868   1.883 -0.1570 -0.0470  0.5314
  985SOL     OW 3942   0.016   4.005   1.981 -0.0282 -0.5074  0.1615
  985SOL    HW2 3943   0.026   4.093   1.942  0.6991 -0.1808  1.0763
  985SOL    HW3 3944   0.089   3.955   1.946  1.4496  0.1858  2.1766
  985SOL    MW4 3945   0.027   4.010   1.971  0.2628 -0.3724  0.5480
  986SOL     OW 3946   4.490   4.237   1.863  0.3781 -0.1461  0.6070
  986SOL    HW2 3947   4.410   4.271   1.903  1.2176  0.1887  2.0536
  986SOL    HW3 3948   4.561   4.289   1.903  1.2392  0.3041 -1.4463
  986SOL    MW4 3949   4.489   4.249   1.874  0.6018 -0.0429  0.5270
  987SOL     OW 3950   0.190   4.386   2.000  0.3973 -0.0925 -0.2744
  987SOL    HW2 3951   0.200   4.386   2.095 -1.8614 -0.3430 -0.0055
  987SOL    HW3 3952   0.196   4.478   1.974 -0.3240  0.1009  0.2624
  987SOL    MW4 3953   0.192   4.398   2.009  0.0041 -0.1001 -0.1681
  988SOL     OW 3954   0.689   0.004   1.910 -0.0178 -0.3151 -0.3083
  988SOL    HW2 3955   0.690  -0.085   1.944 -0.3669 -0.5898 -0.9990
  988SOL    HW3 3956   0.702  -0.006   1.815  1.1872  0.4439 -0.2468
  988SOL    MW4 3957   0.691  -0.009   1.902  0.0951 -0.2513 -0.3911
  989SOL     OW 3958   0.464   0.117   2.014 -0.3389  0.5574  0.1258
  989SOL    HW2 3959   0.445   0.200   1.969 -0.1263  0.4065 -0.2424
  989SOL    HW3 3960   0.544   0.085   1.973 -1.2361 -0.5764 -0.7786
  989SOL    MW4 3961   0.472   0.124   2.003 -0.4292  0.3879 -0.0420
  990SOL     OW 3962   0.421   0.368   1.882  0.0036  0.3449  0.2520
  990SOL    HW2 3963   0.499   0.416   1.911  0.9716 -0.9242 -0.1822
  990SOL    HW3 3964   0.417   0.383   1.787  0.9518 -1.2805 -0.0754
  990SOL    MW4 3965   0.431   0.376   1.873  0.2564 -0.0370  0.1515
  991SOL     OW 3966   0.622   0.517   1.976 -0.0098  0.1206 -0.4590
  991SOL    HW2 3967   0.631   0.513   2.071 -0.1335  1.6319 -0.3610
  991SOL    HW3 3968   0.702   0.475   1.943 -0.7664 -1.9501  0.2812
  991SOL    MW4 3969   0.634   0.511   1.984 -0.1260  0.0468 -0.3484
  992SOL     OW 3970   0.681   0.751   1.835  0.5137  0.2842 -0.7504
  992SOL    HW2 3971   0.746   0.790   1.894  0.7442 -0.3306 -0.5966
  992SOL    HW3 3972   0.650   0.674   1.882  0.5235 -0.0732 -1.3327
  992SOL    MW4 3973   0.686   0.746   1.849  0.5454  0.1559 -0.8069
  993SOL     OW 3974   0.451   0.864   2.008  0.4950  0.2609 -0.1069
  993SOL    HW2 3975   0.453   0.958   1.990  0.0752 -0.1285 -2.4329
  993SOL    HW3 3976   0.530   0.830   1.964  0.1766 -0.5806 -0.0395
  993SOL    MW4 3977   0.462   0.872   2.000  0.3976  0.0985 -0.4050
  994SOL     OW 3978   0.416   1.133   1.956 -0.1284  0.2050  0.0476
  994SOL    HW2 3979   0.340   1.188   1.978  0.2180  0.4998  0.5126
  994SOL    HW3 3980   0.426   1.143   1.862 -1.6951 -1.1536 -0.2791
  994SOL    MW4 3981   0.407   1.142   1.947 -0.2894  0.0646  0.0659
  995SOL     OW 3982   0.668   1.271   2.009 -0.4055 -0.4181 -0.3410
  995SOL    HW2 3983   0.702   1.257   2.097  1.8776 -0.6022 -1.2211
  995SOL    HW3 3984   0.589   1.217   2.005  0.0949 -1.3026  1.2082
  995SOL    MW4 3985   0.662   1.262   2.020 -0.0383 -0.5591 -0.2527
  996SOL     OW 3986   0.690   1.535   1.907  0.0038 -0.7613 -0.7289
  996SOL    HW2 3987   0.680   1.442   1.930  0.1696 -0.4381  0.6931
  996SOL    HW3 3988   0.692   1.535   1.811  2.5124 -2.5204 -0.7579
  996SOL    MW4 3989   0.689   1.522   1.897  0.3566 -0.9508 -0.5450
  997SOL     OW 3990   0.448   1.683   1.953 -0.0262 -0.2364  0.4973
  997SOL    HW2 3991   0.453   1.700   2.047  1.4908 -2.6785  0.8888
  997SOL    HW3 3992   0.531   1.641   1.932  0.1462  1.3494 -2.1892
  997SOL    MW4 3993   0.460   1.680   1.963  0.1967 -0.3493  0.1944
  998SOL     OW 3994   0.475   1.946   1.872  0.0461  0.3006 -0.4944
  998SOL    HW2 3995   0.474   1.855   1.902  1.9538  0.8458  1.3006
  998SOL    HW3 3996   0.399   1.986   1.913 -1.1586 -0.6148 -1.7871
  998SOL    MW4 3997   0.465   1.939   1.881  0.1388  0.2517 -0.4283
  999SOL     OW 3998   0.707   2.063   1.950  0.6279  0.0488  0.2923
  999SOL    HW2 3999   0.688   2.067   2.043  1.5878 -0.9504  0.5389
  999SOL    HW3 4000   0.626   2.030   1.911 -0.1838  1.5920  0.6124
  999SOL    MW4 4001   0.694   2.060   1.957  0.6474  0.1206  0.3670
 1000SOL     OW 4002   0.664   2.347   1.893  0.3841 -0.4461  0.2727
 1000SOL    HW2 4003   0.674   2.253   1.911  0.4254 -0.9438 -2.0525
 1000SOL    HW3 4004   0.681   2.354   1.799  0.2127  1.8850  0.3938
 1000SOL    MW4 4005   0.667   2.335   1.883  0.3670 -0.2043 -0.0181
 1001SOL     OW 4006   0.421   2.461   1.987  0.2925  0.0476  0.1939
 1001SOL    HW2 4007   0.432   2.467   2.082 -0.6433 -0.3328  0.3258
 1001SOL    HW3 4008   0.497   2.412   1.957  0.2185 -0.4510  0.8268
 1001SOL    MW4 4009   0.433   2.455   1.995  0.1593 -0.0682  0.2949
 1002SOL     OW 4010   0.445   2.728   1.892 -0.0543 -0.0003  0.3557
 1002SOL    HW2 4011   0.449   2.638   1.924  0.6781  0.7288  2.4223
 1002SOL    HW3 4012   0.359   2.760   1.920  0.0913  0.2552  0.5165
 1002SOL    MW4 4013   0.434   2.721   1.900  0.0615  0.1292  0.6496
 1003SOL     OW 4014   0.673   2.842   2.009  0.0014 -0.4174  0.0300
 1003SOL    HW2 4015   0.650   2.854   2.101  0.8914  1.6359  0.0222
 1003SOL    HW3 4016   0.588   2.828   1.966 -0.6544  0.7360  0.8866
 1003SOL    MW4 4017   0.659   2.842   2.015  0.0322  0.0060  0.1421
 1004SOL     OW 4018   0.690   3.101   1.861 -0.3878  0.3659 -0.4774
 1004SOL    HW2 4019   0.681   3.010   1.891 -2.1025  0.7836  0.3496
 1004SOL    HW3 4020   0.694   3.095   1.766  2.0134 -0.7522 -0.3398
 1004SOL    MW4 4021   0.690   3.088   1.852 -0.2972  0.2732 -0.3500
 1005SOL     OW 4022   0.492   3.247   1.998  0.0131  0.1239  0.1006
 1005SOL    HW2 4023   0.475   3.325   1.945 -0.0001  0.4101  0.5270
 1005SOL    HW3 4024   0.568   3.207   1.956 -0.4616 -0.0672 -0.5922
 1005SOL    MW4 4025   0.500   3.252   1.985 -0.0512  0.1366  0.0656
 1006SOL     OW 4026   0.437   3.474   1.861  0.2833  0.5148  0.0340
 1006SOL    HW2 4027   0.511   3.523   1.896  0.1130  0.1657  0.8842
 1006SOL    HW3 4028   0.438   3.493   1.767  0.9759  1.1349  0.1654
 1006SOL    MW4 4029   0.446   3.483   1.853  0.3522  0.5505  0.1637
 1007SOL     OW 4030   0.637   3.616   1.996 -0.1770 -0.3565 -0.1533
 1007SOL    HW2 4031   0.716   3.567   1.974  0.7764  0.2068  1.8450
 1007SOL    HW3 4032   0.648   3.700   1.953 -0.5572 -0.9196 -1.3748
 1007SOL    MW4 4033   0.649   3.620   1.988 -0.1014 -0.3567 -0.0508
 1008SOL     OW 4034   0.675   3.848   1.865  0.1575 -0.5352  0.1137
 1008SOL    HW2 4035   0.754   3.894   1.892 -0.4469 -0.3185  1.5756
 1008SOL    HW3 4036   0.662   3.873   1.774  0.7740  0.8397  0.3895
 1008SOL    MW4 4037   0.684   3.857   1.856  0.1591 -0.3252  0.3430
 1009SOL     OW 4038   0.453   4.021   2.001  0.2748 -0.4935 -0.2559
 1009SOL    HW2 4039   0.459   4.110   1.968  1.0653 -0.7033 -0.7107
 1009SOL    HW3 4040   0.538   3.982   1.978  0.4960 -0.9097  1.2399
 1009SOL    MW4 4041   0.465   4.027   1.993  0.4084 -0.5760 -0.1186
 1010SOL     OW 4042   0.447   4.298   1.921  0.2075  0.8095 -0.2422
 1010SOL    HW2 4043   0.356   4.313   1.945  0.2159 -1.4813  1.4071
 1010SOL    HW3 4044   0.445   4.285   1.826 -1.4850 -1.0076  0.0098
 1010SOL    MW4 4045   0.435   4.298   1.911 -0.0147  0.2670  0.0086
 1011SOL     OW 4046   0.692   4.413   1.977 -0.0400 -0.5256 -0.2637
 1011SOL    HW2 4047   0.754   4.360   1.928  1.2598  0.8436 -0.1284
 1011SOL    HW3 4048   0.607   4.372   1.960  0.3960 -0.2362 -3.4143
 1011SOL    MW4 4049   0.689   4.400   1.969  0.1890 -0.3071 -0.6615
 1012SOL     OW 4050   1.073   0.014   1.905 -0.2750  0.3304  0.2987
 1012SOL    HW2 4051   1.156   0.057   1.926  0.4080 -1.1538  0.7082
 1012SOL    HW3 4052   1.088  -0.078   1.925 -0.9136 -0.5213 -2.8913
 1012SOL    MW4 4053   1.086   0.008   1.911 -0.2692  0.0221 -0.0682
 1013SOL     OW 4054   0.870   0.164   2.050 -0.2341  0.0238 -0.2009
 1013SOL    HW2 4055   0.958   0.138   2.023 -0.1619 -0.1101  0.1594
 1013SOL    HW3 4056   0.812   0.099   2.009 -0.3689  1.4724 -2.3684
 1013SOL    MW4 4057   0.874   0.152   2.041 -0.2424  0.1972 -0.4396
 1014SOL     OW 4058   0.868   0.394   1.901  0.1791  0.0973 -0.1527
 1014SOL    HW2 4059   0.953   0.429   1.928  0.8873 -1.5300 -0.2419
 1014SOL    HW3 4060   0.861   0.311   1.948 -0.6579 -0.5341 -1.3891
 1014SOL    MW4 4061   0.878   0.387   1.911  0.1621 -0.2007 -0.3276
 1015SOL     OW 4062   1.113   0.511   2.000 -0.1462  0.1873 -0.4089
 1015SOL    HW2 4063   1.190   0.467   1.965  0.0110 -0.1416  0.3446
 1015SOL    HW3 4064   1.111   0.596   1.956  0.5626  0.1352 -0.5347
 1015SOL    MW4 4065   1.123   0.516   1.990 -0.0319  0.1370 -0.3260
 1016SOL     OW 4066   1.102   0.752   1.874 -0.5238 -0.2940  0.2090
 1016SOL    HW2 4067   1.179   0.801   1.902 -0.3141 -0.8448  0.5985
 1016SOL    HW3 4068   1.029   0.796   1.917 -0.2555 -0.8168  1.2177
 1016SOL    MW4 4069   1.103   0.765   1.883 -0.4607 -0.4357  0.3935
 1017SOL     OW 4070   0.858   0.871   2.013 -0.4213 -0.2152  0.3653
 1017SOL    HW2 4071   0.873   0.890   2.105 -2.5334  1.3808  0.4234
 1017SOL    HW3 4072   0.865   0.956   1.970 -2.2484 -0.4946 -0.5296
 1017SOL    MW4 4073   0.861   0.885   2.019 -0.9410 -0.0415  0.2551
 1018SOL     OW 4074   0.871   1.118   1.887  0.0266  0.6510  0.1881
 1018SOL    HW2 4075   0.798   1.171   1.917 -0.0806  0.6305 -0.0400
 1018SOL    HW3 4076   0.870   1.125   1.792 -0.1048  0.0915  0.1417
 1018SOL    MW4 4077   0.861   1.126   1.878 -0.0049  0.5745  0.1519
 1019SOL     OW 4078   1.087   1.251   1.980  0.1457  0.5529 -0.1456
 1019SOL    HW2 4079   1.094   1.337   1.939 -0.3203  0.9259  0.5453
 1019SOL    HW3 4080   0.999   1.220   1.959 -0.6809  1.4317  1.8547
 1019SOL    MW4 4081   1.077   1.258   1.972 -0.0248  0.7181  0.2096
 1020SOL     OW 4082   1.126   1.519   1.883  0.0787 -0.5842 -0.1081
 1020SOL    HW2 4083   1.044   1.539   1.928 -0.5534 -2.2770 -0.4554
 1020SOL    HW3 4084   1.113   1.549   1.794 -0.1740 -0.8616 -0.1647
 1020SOL    MW4 4085   1.114   1.525   1.877 -0.0380 -0.8441 -0.1614
 1021SOL     OW 4086   0.914   1.641   1.996 -0.4798  0.1291  0.4035
 1021SOL    HW2 4087   0.921   1.730   1.961 -0.1886  0.4156  1.1580
 1021SOL    HW3 4088   0.831   1.608   1.963 -0.7451  0.8077  0.3875
 1021SOL    MW4 4089   0.904   1.649   1.987 -0.4764  0.2564  0.5009
 1022SOL     OW 4090   0.915   1.900   1.884  0.6011  0.2429 -0.0990
 1022SOL    HW2 4091   0.839   1.939   1.925  0.3965  0.8519 -1.0395
 1022SOL    HW3 4092   0.894   1.897   1.791  1.7168  0.4334 -0.3761
 1022SOL    MW4 4093   0.902   1.905   1.877  0.7213  0.3484 -0.2596
 1023SOL     OW 4094   1.146   2.032   1.958 -0.2241 -0.5382  0.4498
 1023SOL    HW2 4095   1.135   2.122   1.929  0.1904 -0.1032  1.5882
 1023SOL    HW3 4096   1.070   1.985   1.924 -1.6762  0.7449  1.8223
 1023SOL    MW4 4097   1.135   2.037   1.950 -0.3611 -0.3119  0.7811
 1024SOL     OW 4098   1.097   2.306   1.898  0.3393  0.2997  0.4374
 1024SOL    HW2 4099   1.181   2.347   1.920  1.7459 -1.4377 -1.4486
 1024SOL    HW3 4100   1.088   2.320   1.804 -1.0890 -0.2440  0.4809
 1024SOL    MW4 4101   1.107   2.313   1.889  0.3365 -0.0014  0.1942
 1025SOL     OW 4102   0.893   2.454   1.982  0.2154  0.0695  0.1833
 1025SOL    HW2 4103   0.954   2.386   1.952 -0.0624 -1.9974  3.8599
 1025SOL    HW3 4104   0.808   2.427   1.947  0.8046  1.0079 -2.0327
 1025SOL    MW4 4105   0.890   2.441   1.974  0.2565 -0.0794  0.3761
 1026SOL     OW 4106   0.915   2.733   1.893 -0.4536  0.2370 -0.0649
 1026SOL    HW2 4107   0.932   2.648   1.934 -1.4049 -0.2937 -0.7587
 1026SOL    HW3 4108   0.828   2.757   1.924 -0.3445  0.7812 -0.1805
 1026SOL    MW4 4109   0.906   2.725   1.902 -0.5646  0.2387 -0.1715
 1027SOL     OW 4110   1.149   2.859   1.990  0.1374 -0.4977  0.2700
 1027SOL    HW2 4111   1.134   2.861   2.085  1.2530 -0.0494  0.4506
 1027SOL    HW3 4112   1.068   2.825   1.953 -1.3484  1.9866  1.1543
 1027SOL    MW4 4113   1.137   2.855   1.998  0.0887 -0.1109  0.4107
 1028SOL     OW 4114   1.158   3.100   1.881 -0.0353 -0.2517  0.5593
 1028SOL    HW2 4115   1.075   3.142   1.900 -0.3354 -1.0264  0.9871
 1028SOL    HW3 4116   1.154   3.016   1.927  1.1724 -0.0967  0.9670
 1028SOL    MW4 4117   1.146   3.094   1.889  0.0844 -0.3335  0.6694
 1029SOL     OW 4118   0.916   3.234   1.938 -0.4055  0.0464 -0.3033
 1029SOL    HW2 4119   0.898   3.252   2.030  1.4746 -1.6058  0.4266
 1029SOL    HW3 4120   0.850   3.169   1.913 -0.6701  0.2036 -0.0160
 1029SOL    MW4 4121   0.905   3.228   1.947 -0.1924 -0.1512 -0.1692
 1030SOL     OW 4122   0.844   3.493   1.868 -0.1215  0.3231 -0.1240
 1030SOL    HW2 4123   0.857   3.400   1.889 -2.5015 -0.1347 -0.5898
 1030SOL    HW3 4124   0.839   3.496   1.773  0.9697  1.0922 -0.1696
 1030SOL    MW4 4125   0.845   3.481   1.858 -0.2915  0.3643 -0.1916
 1031SOL     OW 4126   1.092   3.601   1.915  0.0921  0.2932 -0.1194
 1031SOL    HW2 4127   1.085   3.629   2.006 -1.6876  0.8090 -0.4035
 1031SOL    HW3 4128   1.006   3.565   1.894  0.4354  0.3297 -1.6441
 1031SOL    MW4 4129   1.080   3.600   1.924 -0.0974  0.3657 -0.3582
 1032SOL     OW 4130   1.139   3.864   1.882  0.2517  0.9621  0.0699
 1032SOL    HW2 4131   1.115   3.771   1.882 -0.6386  1.1826  0.5536
 1032SOL    HW3 4132   1.139   3.888   1.789 -2.3341  1.1577  0.0788
 1032SOL    MW4 4133   1.135   3.855   1.870 -0.2069  1.0171  0.1349
 1033SOL     OW 4134   0.901   3.973   1.968 -0.1122 -0.4559  0.3159
 1033SOL    HW2 4135   0.913   3.999   2.059  0.3160 -0.4798  0.2664
 1033SOL    HW3 4136   0.989   3.951   1.937 -0.1405  0.3028 -0.3346
 1033SOL    MW4 4137   0.914   3.974   1.976 -0.0595 -0.3591  0.2236
 1034SOL     OW 4138   0.888   4.249   1.882  0.2052 -0.4544  0.0372
 1034SOL    HW2 4139   0.972   4.278   1.918  0.5085 -0.0043 -1.0162
 1034SOL    HW3 4140   0.885   4.155   1.902  0.3933 -0.2240  1.1718
 1034SOL    MW4 4141   0.899   4.240   1.889  0.2699 -0.3653  0.0480
 1035SOL     OW 4142   1.097   4.416   1.983 -0.0163  0.0026 -0.5608
 1035SOL    HW2 4143   1.108   4.402   2.077  0.0465 -1.5087 -0.7789
 1035SOL    HW3 4144   1.162   4.359   1.942 -1.5513 -1.0453 -1.5835
 1035SOL    MW4 4145   1.107   4.407   1.990 -0.2104 -0.3352 -0.7247
 1036SOL     OW 4146   1.543   4.655   1.859 -0.3256  0.4066  0.1645
 1036SOL    HW2 4147   1.616   4.690   1.910  0.4641  0.1445 -0.7614
 1036SOL    HW3 4148   1.539   4.563   1.884  0.9308 -0.0485 -1.2099
 1036SOL    MW4 4149   1.552   4.648   1.869 -0.0558  0.3123 -0.1390
 1037SOL     OW 4150   1.317   0.115   1.950  0.4687  0.3101 -0.2263
 1037SOL    HW2 4151   1.341   0.115   2.042 -1.0763 -0.6320  0.2068
 1037SOL    HW3 4152   1.392   0.077   1.905  0.6174 -0.6757  0.8279
 1037SOL    MW4 4153   1.330   0.110   1.956  0.2844  0.0557 -0.0300
 1038SOL     OW 4154   1.337   0.392   1.896 -0.3296 -0.1378  0.1640
 1038SOL    HW2 4155   1.322   0.299   1.911  1.2078 -0.3872  0.2575
 1038SOL    HW3 4156   1.333   0.403   1.801  0.5362 -0.5033  0.0797
 1038SOL    MW4 4157   1.334   0.381   1.885 -0.0125 -0.2190  0.1652
 1039SOL     OW 4158   1.524   0.530   2.010 -0.5146 -0.4891 -0.0293
 1039SOL    HW2 4159   1.603   0.487   1.978  0.0904  1.0195 -0.6402
 1039SOL    HW3 4160   1.452   0.483   1.968  0.0924 -1.3314 -0.1418
 1039SOL    MW4 4161   1.525   0.518   2.000 -0.3548 -0.4011 -0.1247
 1040SOL     OW 4162   1.559   0.772   1.864 -0.8350  0.3887 -0.0168
 1040SOL    HW2 4163   1.641   0.811   1.896 -0.6468  0.1495 -0.2022
 1040SOL    HW3 4164   1.552   0.689   1.913  0.6642 -1.1252 -2.2593
 1040SOL    MW4 4165   1.569   0.766   1.875 -0.6124  0.1574 -0.3372
 1041SOL     OW 4166   1.331   0.897   1.941  0.1010  0.0299  0.2226
 1041SOL    HW2 4167   1.340   0.898   2.037 -0.0657 -0.5877  0.2473
 1041SOL    HW3 4168   1.414   0.864   1.909 -0.2212 -0.7739  0.2067
 1041SOL    MW4 4169   1.343   0.893   1.950  0.0365 -0.1577  0.2236
 1042SOL     OW 4170   1.369   1.174   1.900  0.1294 -0.1972 -0.0738
 1042SOL    HW2 4171   1.368   1.079   1.907 -1.8117 -0.1499  0.6403
 1042SOL    HW3 4172   1.281   1.201   1.926  0.9375  1.8554  0.6524
 1042SOL    MW4 4173   1.357   1.165   1.905 -0.0199  0.0798  0.1161
 1043SOL     OW 4174   1.580   1.290   2.038  0.0754 -0.1100  0.3031
 1043SOL    HW2 4175   1.589   1.372   1.989  2.6116 -0.4259  0.1364
 1043SOL    HW3 4176   1.519   1.237   1.987  0.4695  0.6728 -1.0066
 1043SOL    MW4 4177   1.573   1.294   2.025  0.4621 -0.0483  0.1082
 1044SOL     OW 4178   1.574   1.518   1.884 -0.0995 -0.2671  0.0367
 1044SOL    HW2 4179   1.642   1.582   1.905 -0.4331 -0.3396  1.3730
 1044SOL    HW3 4180   1.494   1.556   1.919 -0.4850 -0.9266 -0.1245
 1044SOL    MW4 4181   1.573   1.532   1.891 -0.1944 -0.3636  0.1916
 1045SOL     OW 4182   1.358   1.595   2.017 -0.1185  0.1970  0.3814
 1045SOL    HW2 4183   1.369   1.607   2.111  0.6114  3.4020 -0.0633
 1045SOL    HW3 4184   1.264   1.575   2.006 -0.2685  0.1339  1.7233
 1045SOL    MW4 4185   1.347   1.594   2.028 -0.0421  0.6115  0.5000
 1046SOL     OW 4186   1.362   1.898   1.877  0.1708 -0.5538 -0.2656
 1046SOL    HW2 4187   1.372   1.816   1.925  0.6949  0.7161  1.8678
 1046SOL    HW3 4188   1.282   1.937   1.913  1.2597  1.0077  0.5031
 1046SOL    MW4 4189   1.352   1.892   1.888  0.3836 -0.1802  0.1174
 1047SOL     OW 4190   1.584   2.032   1.987  0.2187 -0.1155 -0.5398
 1047SOL    HW2 4191   1.569   2.125   1.970  1.2748  0.1160 -0.1963
 1047SOL    HW3 4192   1.513   1.988   1.940 -0.1445  0.8434 -0.9074
 1047SOL    MW4 4193   1.572   2.038   1.979  0.3102  0.0417 -0.5430
 1048SOL     OW 4194   1.545   2.300   1.875 -0.0309  0.0306  0.1268
 1048SOL    HW2 4195   1.627   2.347   1.890  1.5571 -2.5524 -0.2147
 1048SOL    HW3 4196   1.528   2.310   1.781  0.1913  0.1051  0.0948
 1048SOL    MW4 4197   1.554   2.307   1.864  0.2078 -0.3002  0.0774
 1049SOL     OW 4198   1.326   2.410   1.976  0.6404 -0.2708  0.2726
 1049SOL    HW2 4199   1.351   2.501   1.961 -1.0175 -0.0842 -1.5453
 1049SOL    HW3 4200   1.400   2.359   1.943  1.3564  0.3727  0.8391
 1049SOL    MW4 4201   1.339   2.416   1.970  0.5162 -0.1614  0.1074
 1050SOL     OW 4202   1.352   2.658   1.925 -0.6652  0.2370  0.6145
 1050SOL    HW2 4203   1.283   2.719   1.952 -0.7012  0.3798  0.1946
 1050SOL    HW3 4204   1.357   2.667   1.830 -0.5316 -0.2710  0.5716
 1050SOL    MW4 4205   1.344   2.667   1.916 -0.6523  0.1888  0.5535
 1051SOL     OW 4206   1.588   2.819   1.992 -0.7427 -0.4590  0.2756
 1051SOL    HW2 4207   1.667   2.773   1.963 -1.8887 -2.2785 -0.0746
 1051SOL    HW3 4208   1.517   2.760   1.969 -2.1236  0.6559  1.5910
 1051SOL    MW4 4209   1.589   2.805   1.985 -1.0761 -0.5522  0.4029
 1052SOL     OW 4210   1.565   3.082   1.873 -0.5587  0.6798  0.5489
 1052SOL    HW2 4211   1.579   2.991   1.900  0.3560  0.8419  0.6249
 1052SOL    HW3 4212   1.567   3.079   1.778  0.8771  0.8292  0.5622
 1052SOL    MW4 4213   1.567   3.069   1.864 -0.2486  0.7210  0.5608
 1053SOL     OW 4214   1.371   3.234   1.995  0.0659  0.0419 -0.0627
 1053SOL    HW2 4215   1.439   3.187   1.947 -0.4943 -1.6678  0.7468
 1053SOL    HW3 4216   1.290   3.187   1.973 -0.6390  1.1625  0.1013
 1053SOL    MW4 4217   1.369   3.221   1.986 -0.1011 -0.0360  0.0658
 1054SOL     OW 4218   1.333   3.470   1.856  0.0549  0.2509 -0.0039
 1054SOL    HW2 4219   1.351   3.385   1.897  1.2480 -0.0166 -1.0608
 1054SOL    HW3 4220   1.245   3.492   1.886  0.0296 -0.9928  0.9033
 1054SOL    MW4 4221   1.324   3.462   1.865  0.2089  0.0517 -0.0237
 1055SOL     OW 4222   1.549   3.604   1.987 -0.5382 -0.1297 -0.3198
 1055SOL    HW2 4223   1.534   3.623   2.080 -1.2923  1.1252 -0.6859
 1055SOL    HW3 4224   1.467   3.563   1.958 -0.0182 -1.2224 -0.2501
 1055SOL    MW4 4225   1.536   3.601   1.996 -0.5691 -0.1085 -0.3589
 1056SOL     OW 4226   1.596   3.860   1.869 -0.4747 -0.0793  0.1796
 1056SOL    HW2 4227   1.674   3.904   1.902  0.1352  0.4938 -1.9059
 1056SOL    HW3 4228   1.593   3.776   1.915  2.0036 -0.5711 -0.4857
 1056SOL    MW4 4229   1.606   3.855   1.879 -0.0672 -0.0684 -0.1833
 1057SOL     OW 4230   1.368   4.000   1.975 -0.1176 -0.4058  0.2221
 1057SOL    HW2 4231   1.457   3.976   1.949  0.0509  0.4435 -0.0039
 1057SOL    HW3 4232   1.312   3.934   1.935  0.2723  0.0202 -1.0457
 1057SOL    MW4 4233   1.372   3.988   1.966 -0.0441 -0.2375  0.0248
 1058SOL     OW 4234   1.286   4.242   1.900  0.1674 -0.7227 -0.2402
 1058SOL    HW2 4235   1.302   4.153   1.929 -0.5698 -1.3237 -1.6483
 1058SOL    HW3 4236   1.300   4.240   1.805  0.6758  0.7783 -0.2262
 1058SOL    MW4 4237   1.290   4.230   1.891  0.1371 -0.6042 -0.4243
 1059SOL     OW 4238   1.513   4.379   1.982  0.2234 -0.2316  0.0523
 1059SOL    HW2 4239   1.514   4.380   2.077  2.1405 -0.7981  0.0543
 1059SOL    HW3 4240   1.439   4.322   1.960 -0.1209 -0.2352  1.1918
 1059SOL    MW4 4241   1.503   4.371   1.991  0.4309 -0.3061  0.2029
 1060SOL     OW 4242   1.988   0.046   1.886 -0.1290 -0.2799 -0.1366
 1060SOL    HW2 4243   2.065   0.098   1.911 -1.5171  1.0715  1.4250
 1060SOL    HW3 4244   2.010  -0.043   1.914  0.5374  0.2517  1.1056
 1060SOL    MW4 4245   2.001   0.041   1.893 -0.2241 -0.0314  0.2334
 1061SOL     OW 4246   1.732   0.130   1.975 -0.1617 -0.2290  0.0250
 1061SOL    HW2 4247   1.736   0.130   2.071  1.2770  1.1757 -0.0200
 1061SOL    HW3 4248   1.813   0.087   1.948  1.0766  2.3527 -0.5721
 1061SOL    MW4 4249   1.743   0.124   1.984  0.1916  0.2969 -0.0598
 1062SOL     OW 4250   1.751   0.404   1.918 -0.1992  0.4162 -0.6353
 1062SOL    HW2 4251   1.751   0.309   1.929 -0.9924  0.5360  0.3929
 1062SOL    HW3 4252   1.768   0.416   1.824 -0.5800 -0.7518 -0.8737
 1062SOL    MW4 4253   1.753   0.393   1.907 -0.3542  0.2779 -0.5311
 1063SOL     OW 4254   2.015   0.496   1.982 -0.0290 -0.3117  0.1443
 1063SOL    HW2 4255   2.014   0.588   1.954 -1.6370 -0.8650 -1.7470
 1063SOL    HW3 4256   1.932   0.461   1.950  0.9237 -2.6378  0.1568
 1063SOL    MW4 4257   2.004   0.504   1.974 -0.1154 -0.6916 -0.1036
 1064SOL     OW 4258   2.018   0.751   1.835 -0.0172  0.5761  0.2050
 1064SOL    HW2 4259   2.102   0.789   1.860 -0.6096  1.4634  0.8869
 1064SOL    HW3 4260   2.018   0.752   1.740  1.0527 -0.1109  0.1956
 1064SOL    MW4 4261   2.029   0.756   1.826  0.0460  0.6025  0.2937
 1065SOL     OW 4262   1.790   0.899   1.970 -0.2553  0.1566  0.0586
 1065SOL    HW2 4263   1.787   0.988   1.934  0.4730 -0.3632 -1.3032
 1065SOL    HW3 4264   1.863   0.857   1.925 -1.3101 -1.4915 -0.1649
 1065SOL    MW4 4265   1.799   0.905   1.959 -0.2984 -0.1295 -0.1506
 1066SOL     OW 4266   1.769   1.161   1.902 -0.0287  0.8845  0.7759
 1066SOL    HW2 4267   1.700   1.211   1.945 -0.6576  0.5338  0.1739
 1066SOL    HW3 4268   1.771   1.195   1.812  1.4628  1.8028  1.1345
 1066SOL    MW4 4269   1.760   1.172   1.896  0.0850  0.9593  0.7439
 1067SOL     OW 4270   2.008   1.297   1.957  0.0377 -0.6418  0.2385
 1067SOL    HW2 4271   2.082   1.242   1.930  0.3147 -0.5760  0.8536
 1067SOL    HW3 4272   1.931   1.246   1.932  0.2901 -0.8062 -0.2142
 1067SOL    MW4 4273   2.007   1.283   1.950  0.1078 -0.6548  0.2599
 1068SOL     OW 4274   2.013   1.575   1.885  0.0854  0.3729 -0.0675
 1068SOL    HW2 4275   2.013   1.481   1.900 -0.1786  0.4714  0.5975
 1068SOL    HW3 4276   2.006   1.585   1.790 -0.8724 -0.2661 -0.0693
 1068SOL    MW4 4277   2.012   1.564   1.875 -0.0761  0.3016  0.0199
 1069SOL     OW 4278   1.774   1.697   1.969  0.1136  0.0283 -0.2828
 1069SOL    HW2 4279   1.783   1.778   1.920  0.7947  1.3348  1.9174
 1069SOL    HW3 4280   1.853   1.648   1.948  0.1195  0.3152 -0.9420
 1069SOL    MW4 4281   1.786   1.701   1.960  0.2042  0.2387 -0.0794
 1070SOL     OW 4282   1.803   1.963   1.854 -0.1847 -0.0410  0.5744
 1070SOL    HW2 4283   1.728   2.008   1.893 -1.6885 -0.5964 -1.6088
 1070SOL    HW3 4284   1.797   1.981   1.761  3.0274  0.7514  0.4676
 1070SOL    MW4 4285   1.792   1.971   1.847  0.0407 -0.0098  0.2724
 1071SOL     OW 4286   2.034   2.052   1.954 -0.1047 -0.6472  0.0495
 1071SOL    HW2 4287   2.104   2.019   1.898  0.4593  0.3567  0.1559
 1071SOL    HW3 4288   1.955   2.010   1.921  0.4637 -1.3473 -0.4329
 1071SOL    MW4 4289   2.033   2.042   1.942  0.0446 -0.6070 -0.0002
 1072SOL     OW 4290   2.017   2.328   1.893 -0.3219 -0.2946  0.7882
 1072SOL    HW2 4291   2.105   2.364   1.903  0.0559 -0.7508 -0.7776
 1072SOL    HW3 4292   2.024   2.237   1.921 -0.4720 -0.1336  1.3611
 1072SOL    MW4 4293   2.029   2.321   1.898 -0.2918 -0.3335  0.6571
 1073SOL     OW 4294   1.763   2.446   1.929  0.3083  0.0034 -0.0244
 1073SOL    HW2 4295   1.747   2.443   2.024 -1.3984 -1.2521 -0.3233
 1073SOL    HW3 4296   1.852   2.414   1.918 -0.0121 -1.2605  1.0373
 1073SOL    MW4 4297   1.772   2.442   1.940  0.0409 -0.3288  0.0763
 1074SOL     OW 4298   1.835   2.712   1.895 -0.1863 -0.2671 -0.3693
 1074SOL    HW2 4299   1.828   2.619   1.916 -0.9776 -0.2178 -0.3887
 1074SOL    HW3 4300   1.821   2.717   1.801 -0.0290 -0.1381 -0.3871
 1074SOL    MW4 4301   1.832   2.700   1.886 -0.2699 -0.2434 -0.3743
 1075SOL     OW 4302   2.081   2.852   1.972  0.2494  0.0650 -0.5997
 1075SOL    HW2 4303   2.094   2.843   2.066 -0.6199  2.1701 -0.2431
 1075SOL    HW3 4304   2.013   2.788   1.950  0.5782 -0.5467  0.1630
 1075SOL    MW4 4305   2.074   2.843   1.981  0.1783  0.2620 -0.4520
 1076SOL     OW 4306   2.013   3.089   1.871  0.1375  0.1501 -0.2269
 1076SOL    HW2 4307   1.928   3.115   1.907  0.1854 -0.5439  0.4198
 1076SOL    HW3 4308   2.033   3.006   1.916  0.0509 -0.9135 -2.0929
 1076SOL    MW4 4309   2.004   3.081   1.882  0.1326 -0.0815 -0.3878
 1077SOL     OW 4310   1.779   3.212   1.969 -0.3695 -0.2593  0.0172
 1077SOL    HW2 4311   1.783   3.197   2.063 -1.0175 -0.8981 -0.0552
 1077SOL    HW3 4312   1.706   3.158   1.939  0.5092 -0.8988 -1.0153
 1077SOL    MW4 4313   1.770   3.203   1.978 -0.3392 -0.4280 -0.1286
 1078SOL     OW 4314   1.784   3.468   1.870  0.4719  0.3139  0.3799
 1078SOL    HW2 4315   1.782   3.377   1.900  0.7342  0.4226  0.7264
 1078SOL    HW3 4316   1.700   3.504   1.898 -0.8416 -0.5957 -2.2065
 1078SOL    MW4 4317   1.772   3.461   1.878  0.3331  0.2081  0.0845
 1079SOL     OW 4318   2.000   3.611   1.953  0.3460 -0.5528  0.4309
 1079SOL    HW2 4319   1.994   3.700   1.917  1.0930 -0.1650  1.2479
 1079SOL    HW3 4320   1.924   3.566   1.918 -0.2191  0.5133  0.2614
 1079SOL    MW4 4321   1.989   3.617   1.944  0.3699 -0.3610  0.5162
 1080SOL     OW 4322   1.978   3.871   1.871  0.2615 -0.2105 -0.1292
 1080SOL    HW2 4323   2.061   3.889   1.915 -0.0408 -1.4685  0.9899
 1080SOL    HW3 4324   1.998   3.879   1.778  1.0967  1.7396  0.1987
 1080SOL    MW4 4325   1.992   3.875   1.865  0.3318 -0.1192  0.0618
 1081SOL     OW 4326   1.784   4.008   1.988  0.0252 -0.0012  0.3674
 1081SOL    HW2 4327   1.761   4.090   1.944 -2.6418 -0.4006  0.9173
 1081SOL    HW3 4328   1.861   3.976   1.940 -0.6445  1.3689 -1.7110
 1081SOL    MW4 4329   1.791   4.014   1.976 -0.4151  0.1268  0.1657
 1082SOL     OW 4330   1.766   4.293   1.917 -0.1480 -0.0513  0.1858
 1082SOL    HW2 4331   1.676   4.311   1.942 -0.2546 -1.0192  0.5324
 1082SOL    HW3 4332   1.766   4.294   1.821 -0.3186  0.9062  0.1909
 1082SOL    MW4 4333   1.754   4.296   1.908 -0.1844 -0.0525  0.2322
 1083SOL     OW 4334   2.007   4.430   1.979 -0.2358  0.1272 -0.5376
 1083SOL    HW2 4335   2.073   4.372   1.940  0.2429 -0.4151  1.0570
 1083SOL    HW3 4336   1.926   4.380   1.976 -0.3839  0.4149 -1.5974
 1083SOL    MW4 4337   2.005   4.416   1.974 -0.1922  0.0939 -0.4669
 1084SOL     OW 4338   2.455   4.661   1.888 -0.1930 -0.2628  0.2284
 1084SOL    HW2 4339   2.535   4.705   1.916 -0.6718  1.1399 -0.5489
 1084SOL    HW3 4340   2.456   4.578   1.934  1.7863 -0.3170  0.1260
 1084SOL    MW4 4341   2.465   4.656   1.898  0.0048 -0.0849  0.1124
 1085SOL     OW 4342   2.229   0.154   1.977  0.3369 -0.0080 -0.4318
 1085SOL    HW2 4343   2.242   0.147   2.071  0.8169 -0.8457 -0.5601
 1085SOL    HW3 4344   2.300   0.103   1.938 -0.4766 -0.5681 -1.2232
 1085SOL    MW4 4345   2.240   0.146   1.984  0.2928 -0.1924 -0.5530
 1086SOL     OW 4346   2.235   0.388   1.829 -0.3028 -0.0659  0.0696
 1086SOL    HW2 4347   2.265   0.324   1.894  0.0246  0.4423  0.4217
 1086SOL    HW3 4348   2.157   0.427   1.868  0.0216  0.3978  0.2617
 1086SOL    MW4 4349   2.229   0.385   1.843 -0.2167  0.0623  0.1415
 1087SOL     OW 4350   2.461   0.526   1.923 -0.5398 -0.5293 -0.4918
 1087SOL    HW2 4351   2.533   0.471   1.891 -1.1832 -2.0493  0.5970
 1087SOL    HW3 4352   2.382   0.482   1.893 -1.0905 -0.8539  1.3754
 1087SOL    MW4 4353   2.460   0.512   1.915 -0.6974 -0.7726 -0.1018
 1088SOL     OW 4354   2.483   0.795   1.842 -0.3112 -0.2353  0.3221
 1088SOL    HW2 4355   2.479   0.704   1.873 -0.4142 -0.1622  0.5271
 1088SOL    HW3 4356   2.487   0.788   1.747  0.3915 -0.4775  0.3638
 1088SOL    MW4 4357   2.483   0.782   1.834 -0.2322 -0.2576  0.3545
 1089SOL     OW 4358   2.247   0.886   1.938 -0.3539  0.1505 -0.1096
 1089SOL    HW2 4359   2.259   0.855   2.027  0.6140  2.3961  0.5840
 1089SOL    HW3 4360   2.331   0.869   1.895 -0.0554  1.1196  0.0755
 1089SOL    MW4 4361   2.260   0.880   1.944 -0.1867  0.5746  0.0063
 1090SOL     OW 4362   2.228   1.155   1.883  0.1085  0.7132  0.4824
 1090SOL    HW2 4363   2.305   1.186   1.929 -0.0623 -0.6733  1.7262
 1090SOL    HW3 4364   2.228   1.060   1.897 -0.8998  0.4962 -0.9057
 1090SOL    MW4 4365   2.238   1.147   1.891 -0.0472  0.5015  0.4631
 1091SOL     OW 4366   2.473   1.279   1.967  0.0256 -0.0742 -0.1866
 1091SOL    HW2 4367   2.461   1.293   2.061  1.0101  0.5619 -0.1452
 1091SOL    HW3 4368   2.455   1.364   1.927  0.0182 -0.2382 -0.5372
 1091SOL    MW4 4369   2.469   1.292   1.974  0.1545 -0.0119 -0.2273
 1092SOL     OW 4370   2.436   1.547   1.886 -0.1616  0.9169  0.0658
 1092SOL    HW2 4371   2.369   1.610   1.913  0.5753  1.6871  0.0919
 1092SOL    HW3 4372   2.443   1.560   1.791 -0.2791  0.6093  0.0150
 1092SOL    MW4 4373   2.428   1.557   1.877 -0.0799  0.9778  0.0627
 1093SOL     OW 4374   2.250   1.711   2.001 -0.3450  0.3389 -0.0490
 1093SOL    HW2 4375   2.226   1.710   2.094 -0.3692  0.3113 -0.0553
 1093SOL    HW3 4376   2.176   1.667   1.958  0.5221 -1.3486  0.1343
 1093SOL    MW4 4377   2.237   1.705   2.008 -0.2339  0.1124 -0.0253
 1094SOL     OW 4378   2.251   1.933   1.823 -0.2443  0.2762  0.5320
 1094SOL    HW2 4379   2.329   1.974   1.859  0.2766 -1.0517  0.9441
 1094SOL    HW3 4380   2.238   1.854   1.875 -0.1312 -1.0893 -1.4413
 1094SOL    MW4 4381   2.259   1.928   1.835 -0.1602 -0.0792  0.3260
 1095SOL     OW 4382   2.474   2.055   1.920  0.4059 -0.3592 -0.0931
 1095SOL    HW2 4383   2.563   2.018   1.911  0.7894  0.9107 -1.6267
 1095SOL    HW3 4384   2.484   2.147   1.897 -1.2812 -0.1533 -0.0130
 1095SOL    MW4 4385   2.487   2.062   1.916  0.2341 -0.1645 -0.2848
 1096SOL     OW 4386   2.453   2.332   1.854  0.0276 -0.1891 -0.2358
 1096SOL    HW2 4387   2.523   2.395   1.872  0.4585 -0.5170 -0.7370
 1096SOL    HW3 4388   2.373   2.376   1.882  0.2035  1.0050 -1.5399
 1096SOL    MW4 4389   2.452   2.346   1.860  0.1075 -0.0746 -0.4740
 1097SOL     OW 4390   2.239   2.471   1.938  0.1609  0.0655 -0.1340
 1097SOL    HW2 4391   2.262   2.475   2.031 -0.7807 -1.6968  0.1940
 1097SOL    HW3 4392   2.235   2.563   1.911  1.4724  0.5792  1.2964
 1097SOL    MW4 4393   2.242   2.484   1.947  0.2098 -0.0992  0.0979
 1098SOL     OW 4394   2.291   2.716   1.848  0.0394 -0.1433 -0.4120
 1098SOL    HW2 4395   2.214   2.767   1.873 -0.5538 -1.3425  0.2980
 1098SOL    HW3 4396   2.283   2.705   1.753 -1.0225 -0.8057 -0.2564
 1098SOL    MW4 4397   2.280   2.721   1.839 -0.1793 -0.3889 -0.2978
 1099SOL     OW 4398   2.494   2.863   1.958  0.2012  0.3393  0.0875
 1099SOL    HW2 4399   2.465   2.951   1.933  1.0255  1.0417  1.5732
 1099SOL    HW3 4400   2.424   2.805   1.928 -0.3226  1.4910 -0.9402
 1099SOL    MW4 4401   2.481   2.867   1.951  0.2408  0.5841  0.1478
 1100SOL     OW 4402   2.434   3.114   1.901  0.1640  0.4743  0.3864
 1100SOL    HW2 4403   2.348   3.144   1.931 -0.5470 -0.5536 -0.5541
 1100SOL    HW3 4404   2.430   3.122   1.806  0.6837 -0.6690  0.2555
 1100SOL    MW4 4405   2.422   3.119   1.893  0.1385  0.1879  0.2451
 1101SOL     OW 4406   2.212   3.234   1.977 -0.1128 -0.4625 -0.2875
 1101SOL    HW2 4407   2.179   3.239   2.067 -2.4966  2.2319 -1.2415
 1101SOL    HW3 4408   2.150   3.178   1.931  0.7844 -1.3681 -0.4284
 1101SOL    MW4 4409   2.200   3.227   1.983 -0.3088 -0.2265 -0.4319
 1102SOL     OW 4410   2.257   3.507   1.924  0.3768 -0.0592  0.0325
 1102SOL    HW2 4411   2.241   3.414   1.942  0.1754  0.1607  1.0030
 1102SOL    HW3 4412   2.175   3.550   1.945  0.5984  0.3997 -0.0412
 1102SOL    MW4 4413   2.244   3.500   1.929  0.3796  0.0303  0.1509
 1103SOL     OW 4414   2.494   3.653   1.970  0.1549  0.1875  0.1360
 1103SOL    HW2 4415   2.502   3.656   2.065  1.5303 -0.0907  0.0359
 1103SOL    HW3 4416   2.420   3.594   1.955  0.1999 -0.1093  1.0238
 1103SOL    MW4 4417   2.485   3.645   1.981  0.3424  0.1116  0.2400
 1104SOL     OW 4418   2.454   3.908   1.856  0.1016  0.0445 -0.1657
 1104SOL    HW2 4419   2.380   3.943   1.905 -1.5753 -0.2382 -2.4351
 1104SOL    HW3 4420   2.472   3.823   1.896 -0.8758  0.0546  0.2949
 1104SOL    MW4 4421   2.447   3.902   1.868 -0.2487  0.0088 -0.4042
 1105SOL     OW 4422   2.223   3.981   1.974 -0.0120  0.2485  0.3247
 1105SOL    HW2 4423   2.205   3.989   2.068  0.9746  1.1325  0.4584
 1105SOL    HW3 4424   2.207   4.069   1.940  1.2367  0.3551 -0.0270
 1105SOL    MW4 4425   2.219   3.994   1.982  0.2828  0.3791  0.2960
 1106SOL     OW 4426   2.200   4.256   1.902  0.2166  0.0225  0.0230
 1106SOL    HW2 4427   2.271   4.312   1.931 -1.0992  1.2893  0.8948
 1106SOL    HW3 4428   2.199   4.265   1.807 -0.4395  2.0943  0.2003
 1106SOL    MW4 4429   2.209   4.265   1.894 -0.0434  0.4630  0.1615
 1107SOL     OW 4430   2.427   4.400   1.977 -0.3457  0.3073 -0.3611
 1107SOL    HW2 4431   2.449   4.400   2.070 -3.0089 -2.1994  0.3459
 1107SOL    HW3 4432   2.508   4.373   1.933  0.3262 -0.6884  1.4517
 1107SOL    MW4 4433   2.441   4.396   1.983 -0.6084 -0.1545 -0.0288
 1108SOL     OW 4434   2.918   4.666   1.823 -0.0750  0.5119 -0.3429
 1108SOL    HW2 4435   2.984   4.720   1.865  0.3511 -0.3350  0.0942
 1108SOL    HW3 4436   2.938   4.577   1.851 -0.3665  0.0430 -1.5569
 1108SOL    MW4 4437   2.929   4.661   1.832 -0.0572  0.3383 -0.4455
 1109SOL     OW 4438   2.697   0.124   1.957  0.2728  0.1035 -0.4319
 1109SOL    HW2 4439   2.708   0.130   2.052  2.0364  1.8809 -0.7232
 1109SOL    HW3 4440   2.775   0.078   1.927  0.1804  0.4150 -1.1395
 1109SOL    MW4 4441   2.708   0.119   1.966  0.4933  0.3791 -0.5636
 1110SOL     OW 4442   2.702   0.385   1.885 -0.2189 -0.3844  0.0709
 1110SOL    HW2 4443   2.784   0.426   1.910 -0.3833  0.1915 -0.3022
 1110SOL    HW3 4444   2.705   0.297   1.922  0.1170 -0.0071  0.9289
 1110SOL    MW4 4445   2.713   0.379   1.893 -0.1962 -0.2586  0.1349
 1111SOL     OW 4446   2.941   0.503   1.925  0.2930 -0.6508  0.0302
 1111SOL    HW2 4447   3.019   0.461   1.888 -0.7495 -2.7845  0.1511
 1111SOL    HW3 4448   2.940   0.590   1.886  2.2858 -0.8949 -0.6171
 1111SOL    MW4 4449   2.951   0.509   1.915  0.4182 -0.9645 -0.0392
 1112SOL     OW 4450   2.911   0.757   1.844  0.2170  0.2909  0.2864
 1112SOL    HW2 4451   2.993   0.795   1.877  1.3173 -1.0008 -0.8748
 1112SOL    HW3 4452   2.843   0.795   1.900  1.2589  3.7611 -0.6755
 1112SOL    MW4 4453   2.913   0.767   1.856  0.4997  0.5783  0.0063
 1113SOL     OW 4454   2.693   0.893   1.987  0.1048 -0.0316  0.2042
 1113SOL    HW2 4455   2.695   0.980   1.947 -0.5152 -0.2395 -0.2819
 1113SOL    HW3 4456   2.626   0.845   1.938  0.9194 -0.9988  0.0225
 1113SOL    MW4 4457   2.684   0.898   1.975  0.1304 -0.1867  0.1161
 1114SOL     OW 4458   2.691   1.155   1.876 -0.5231 -0.3656 -0.0929
 1114SOL    HW2 4459   2.613   1.193   1.915  0.3322  1.3285  0.0138
 1114SOL    HW3 4460   2.674   1.158   1.781 -0.1724  1.0088 -0.1329
 1114SOL    MW4 4461   2.678   1.161   1.868 -0.3641  0.0393 -0.0842
 1115SOL     OW 4462   2.938   1.295   1.924 -0.5890 -0.2191 -0.4134
 1115SOL    HW2 4463   2.923   1.390   1.917 -0.9825 -0.2525 -0.0690
 1115SOL    HW3 4464   2.857   1.256   1.891 -0.5756 -0.4290 -0.1980
 1115SOL    MW4 4465   2.925   1.302   1.918 -0.6392 -0.2512 -0.3396
 1116SOL     OW 4466   2.903   1.587   1.907  0.6165 -0.3865  0.0172
 1116SOL    HW2 4467   2.991   1.606   1.940  0.6644  0.7437 -0.7208
 1116SOL    HW3 4468   2.912   1.593   1.812 -0.4479  0.5744 -0.0265
 1116SOL    MW4 4469   2.916   1.590   1.899  0.4821 -0.1105 -0.0859
 1117SOL     OW 4470   2.658   1.685   1.971  0.1764  0.5868 -0.2452
 1117SOL    HW2 4471   2.743   1.641   1.963  1.2072  2.6784 -1.2880
 1117SOL    HW3 4472   2.595   1.622   1.937  1.1988 -1.3061  1.2929
 1117SOL    MW4 4473   2.661   1.671   1.965  0.4473  0.6130 -0.1798
 1118SOL     OW 4474   2.703   1.920   1.848  0.2601  0.4866 -0.2698
 1118SOL    HW2 4475   2.776   1.954   1.899  0.1135  0.6603 -0.1750
 1118SOL    HW3 4476   2.684   1.835   1.887  0.3003  0.5173 -0.1850
 1118SOL    MW4 4477   2.710   1.913   1.860  0.2460  0.5136 -0.2462
 1119SOL     OW 4478   2.926   2.060   1.958 -0.0611 -0.7643 -0.1774
 1119SOL    HW2 4479   2.919   2.071   2.053  1.6982  1.9643 -0.3184
 1119SOL    HW3 4480   3.015   2.028   1.944 -0.4275 -1.4778 -0.8942
 1119SOL    MW4 4481   2.937   2.058   1.968  0.1225 -0.4983 -0.2905
 1120SOL     OW 4482   2.915   2.332   1.920 -0.2861 -0.4832  0.6945
 1120SOL    HW2 4483   3.003   2.365   1.938  0.1011 -0.5512 -1.0019
 1120SOL    HW3 4484   2.922   2.237   1.932  0.8943 -0.9764 -3.1793
 1120SOL    MW4 4485   2.928   2.323   1.924 -0.0794 -0.5574 -0.0405
 1121SOL     OW 4486   2.680   2.466   1.984  0.2161 -0.5573  0.0097
 1121SOL    HW2 4487   2.701   2.551   1.944  0.1173 -0.4189  0.2512
 1121SOL    HW3 4488   2.762   2.417   1.979  0.3096 -0.4001 -0.0117
 1121SOL    MW4 4489   2.694   2.471   1.978  0.2155 -0.5186  0.0389
 1122SOL     OW 4490   2.711   2.722   1.878  0.1067 -0.1411  0.1171
 1122SOL    HW2 4491   2.639   2.776   1.911 -0.4248 -0.4734 -0.5046
 1122SOL    HW3 4492   2.693   2.711   1.785  0.4442 -1.0320  0.1514
 1122SOL    MW4 4493   2.699   2.728   1.870  0.0811 -0.3023  0.0397
 1123SOL     OW 4494   2.920   2.877   1.981 -0.2029  0.4799  0.0883
 1123SOL    HW2 4495   2.911   2.967   1.951  0.9368  0.2127 -1.0678
 1123SOL    HW3 4496   2.846   2.831   1.941  1.3008  0.1228 -2.3552
 1123SOL    MW4 4497   2.909   2.883   1.972  0.1459  0.3972 -0.3865
 1124SOL     OW 4498   2.930   3.149   1.910 -0.1014 -0.5194  0.0518
 1124SOL    HW2 4499   3.004   3.182   1.961  1.1782  0.1748 -2.2013
 1124SOL    HW3 4500   2.853   3.180   1.958  1.0449 -0.2559  1.7814
 1124SOL    MW4 4501   2.929   3.157   1.923  0.2189 -0.3934 -0.0172
 1125SOL     OW 4502   2.665   3.220   2.003 -0.2084  0.2450 -0.3261
 1125SOL    HW2 4503   2.668   3.309   1.967  1.3321  0.0268 -0.7640
 1125SOL    HW3 4504   2.581   3.186   1.974 -0.8599  1.6021 -0.0699
 1125SOL    MW4 4505   2.654   3.227   1.994 -0.0911  0.3953 -0.3502
 1126SOL     OW 4506   2.692   3.480   1.901  0.3813 -0.6412 -0.2397
 1126SOL    HW2 4507   2.776   3.519   1.924  0.1591 -1.0897  1.3996
 1126SOL    HW3 4508   2.627   3.541   1.937  0.0158 -0.8668 -0.5197
 1126SOL    MW4 4509   2.695   3.493   1.909  0.3037 -0.7300 -0.0603
 1127SOL     OW 4510   2.921   3.625   1.947 -0.0945 -0.4777  0.2123
 1127SOL    HW2 4511   2.917   3.642   2.041 -1.0127  0.1920  0.0613
 1127SOL    HW3 4512   2.994   3.564   1.937  0.3097 -0.1868  1.3000
 1127SOL    MW4 4513   2.930   3.619   1.958 -0.1621 -0.3510  0.3359
 1128SOL     OW 4514   2.900   3.903   1.864  0.2410  0.4692  0.4107
 1128SOL    HW2 4515   2.900   3.810   1.888  0.3937  0.6045  0.9346
 1128SOL    HW3 4516   2.883   3.903   1.770  0.3809 -0.0995  0.3826
 1128SOL    MW4 4517   2.898   3.891   1.855  0.2794  0.4117  0.4761
 1129SOL     OW 4518   2.657   4.067   1.947 -0.2014  0.2274 -0.3681
 1129SOL    HW2 4519   2.737   4.022   1.919 -0.2253 -0.1179  0.1131
 1129SOL    HW3 4520   2.586   4.011   1.917 -0.2651  0.4843 -0.7074
 1129SOL    MW4 4521   2.658   4.054   1.940 -0.2129  0.2155 -0.3492
 1130SOL     OW 4522   2.666   4.316   1.853 -0.3474  0.2258 -0.1780
 1130SOL    HW2 4523   2.665   4.233   1.901 -0.1962 -0.3876 -1.2322
 1130SOL    HW3 4524   2.666   4.291   1.761  0.3103  1.3838 -0.5053
 1130SOL    MW4 4525   2.666   4.302   1.847 -0.2408  0.2975 -0.3603
 1131SOL     OW 4526   2.919   4.416   1.945  0.2253  0.0573  0.4098
 1131SOL    HW2 4527   2.921   4.409   2.040 -0.3992 -3.2318  0.2296
 1131SOL    HW3 4528   2.830   4.392   1.921  0.3537  0.9428 -1.0259
 1131SOL    MW4 4529   2.908   4.412   1.954  0.1600 -0.2599  0.1966
 1132SOL     OW 4530   3.402   4.636   1.864  0.3939 -0.2210  0.0681
 1132SOL    HW2 4531   3.393   4.545   1.895 -1.0845 -0.0284  0.2434
 1132SOL    HW3 4532   3.383   4.632   1.771  0.5286 -0.1240  0.0366
 1132SOL    MW4 4533   3.398   4.623   1.856  0.2165 -0.1826  0.0869
 1133SOL     OW 4534   3.165   0.100   1.919  0.1257 -0.3015  0.0423
 1133SOL    HW2 4535   3.182   0.104   2.014  0.1835 -2.9057  0.1895
 1133SOL    HW3 4536   3.230   0.037   1.886  0.2045  0.7047 -1.7646
 1133SOL    MW4 4537   3.176   0.092   1.927  0.1438 -0.5123 -0.1767
 1134SOL     OW 4538   3.184   0.379   1.821 -0.6465 -0.4605 -0.1240
 1134SOL    HW2 4539   3.193   0.285   1.834  0.5067 -0.3341  0.0146
 1134SOL    HW3 4540   3.187   0.391   1.726 -2.4940 -0.7194 -0.2400
 1134SOL    MW4 4541   3.186   0.368   1.810 -0.7381 -0.4779 -0.1211
 1135SOL     OW 4542   3.380   0.498   1.971 -0.5196 -0.5296 -0.1203
 1135SOL    HW2 4543   3.460   0.455   1.940 -0.1893  0.3000 -0.4562
 1135SOL    HW3 4544   3.311   0.463   1.916 -0.3575 -1.1178  0.0485
 1135SOL    MW4 4545   3.382   0.488   1.960 -0.4547 -0.4978 -0.1421
 1136SOL     OW 4546   3.385   0.781   1.889  0.2105 -0.1599 -0.0888
 1136SOL    HW2 4547   3.302   0.828   1.902 -0.4054 -0.7077 -1.8559
 1136SOL    HW3 4548   3.373   0.698   1.936  0.8961  0.9943  2.1415
 1136SOL    MW4 4549   3.372   0.776   1.897  0.2196 -0.0799 -0.0277
 1137SOL     OW 4550   3.131   0.878   1.965 -0.3449  0.3529 -0.2195
 1137SOL    HW2 4551   3.149   0.887   2.059  0.7206 -1.4289 -0.2242
 1137SOL    HW3 4552   3.131   0.968   1.932 -1.4025  1.0498  1.5909
 1137SOL    MW4 4553   3.134   0.891   1.973 -0.3440  0.2098  0.0187
 1138SOL     OW 4554   3.157   1.133   1.869  0.4855 -0.1498 -0.0571
 1138SOL    HW2 4555   3.224   1.195   1.900 -0.0028 -0.0246  0.7890
 1138SOL    HW3 4556   3.074   1.176   1.891  0.0862  0.5837 -2.8494
 1138SOL    MW4 4557   3.154   1.147   1.876  0.3684 -0.0366 -0.3138
 1139SOL     OW 4558   3.380   1.296   1.959  0.6806 -0.2256  0.4974
 1139SOL    HW2 4559   3.390   1.302   2.054 -0.0665  1.8198  0.4745
 1139SOL    HW3 4560   3.369   1.386   1.930  0.1571 -0.8801 -1.4555
 1139SOL    MW4 4561   3.380   1.308   1.968  0.5133 -0.0420  0.2367
 1140SOL     OW 4562   3.346   1.533   1.835 -0.0448 -0.8514  0.4011
 1140SOL    HW2 4563   3.430   1.574   1.855 -0.1390 -0.9330  0.9727
 1140SOL    HW3 4564   3.282   1.581   1.887 -0.4278 -0.4743 -0.4048
 1140SOL    MW4 4565   3.349   1.544   1.845 -0.1080 -0.8122  0.3704
 1141SOL     OW 4566   3.173   1.661   2.004 -0.1025  0.4471 -0.0108
 1141SOL    HW2 4567   3.149   1.664   2.097 -1.6728  0.1134 -0.3973
 1141SOL    HW3 4568   3.162   1.751   1.974  0.3831  0.5504  0.1186
 1141SOL    MW4 4569   3.169   1.673   2.013 -0.2456  0.4166 -0.0448
 1142SOL     OW 4570   3.166   1.921   1.884 -0.0386  0.7624 -0.2315
 1142SOL    HW2 4571   3.240   1.965   1.926 -0.6602  1.9095 -0.3022
 1142SOL    HW3 4572   3.179   1.936   1.790  0.4576 -0.3582 -0.3448
 1142SOL    MW4 4573   3.177   1.929   1.877 -0.0551  0.7659 -0.2557
 1143SOL     OW 4574   3.393   2.084   1.986 -0.1237 -0.2064  0.0776
 1143SOL    HW2 4575   3.457   2.036   1.933 -0.3160 -0.4935  0.1027
 1143SOL    HW3 4576   3.398   2.174   1.954  0.2451 -0.2407  0.0355
 1143SOL    MW4 4577   3.402   2.089   1.975 -0.1004 -0.2489  0.0752
 1144SOL     OW 4578   3.422   2.346   1.906 -0.5307  0.3932  0.1799
 1144SOL    HW2 4579   3.338   2.388   1.924  0.1832  1.6402  0.7115
 1144SOL    HW3 4580   3.427   2.341   1.811 -2.0034 -1.3620  0.1809
 1144SOL    MW4 4581   3.412   2.351   1.896 -0.6309  0.3262  0.2501
 1145SOL     OW 4582   3.179   2.467   1.958  0.2913 -0.4164  0.2706
 1145SOL    HW2 4583   3.166   2.463   2.052  0.1374 -0.3721  0.2506
 1145SOL    HW3 4584   3.150   2.554   1.932  0.3390 -0.4262  0.1834
 1145SOL    MW4 4585   3.174   2.478   1.967  0.2775 -0.4117  0.2564
 1146SOL     OW 4586   3.136   2.727   1.891  0.2240  0.1620  0.0279
 1146SOL    HW2 4587   3.055   2.773   1.913  0.1854 -0.1251  0.4741
 1146SOL    HW3 4588   3.141   2.735   1.795 -0.7202 -0.4668 -0.0839
 1146SOL    MW4 4589   3.126   2.734   1.881  0.0947  0.0410  0.0720
 1147SOL     OW 4590   3.380   2.862   1.993  0.2933 -0.0704  0.3688
 1147SOL    HW2 4591   3.372   2.882   2.086  0.4438 -0.0161  0.3704
 1147SOL    HW3 4592   3.297   2.820   1.970  0.8130 -1.3790  0.8488
 1147SOL    MW4 4593   3.368   2.859   2.002  0.3819 -0.2363  0.4325
 1148SOL     OW 4594   3.353   3.098   1.868 -0.3174 -0.0084  0.0046
 1148SOL    HW2 4595   3.419   3.149   1.915 -0.2485 -0.0366 -0.0605
 1148SOL    HW3 4596   3.359   3.011   1.906 -0.1832 -0.0602 -0.1339
 1148SOL    MW4 4597   3.363   3.093   1.879 -0.2909 -0.0191 -0.0223
 1149SOL     OW 4598   3.147   3.244   2.018 -0.6913  0.2024  0.0885
 1149SOL    HW2 4599   3.149   3.325   1.968 -1.3034  0.8245  1.0492
 1149SOL    HW3 4600   3.209   3.186   1.973  0.4171  1.4978 -0.0967
 1149SOL    MW4 4601   3.156   3.247   2.006 -0.6258  0.4551  0.1905
 1150SOL     OW 4602   3.146   3.480   1.878 -0.6328  0.3258 -0.3715
 1150SOL    HW2 4603   3.226   3.521   1.911  1.3261 -3.2394 -0.4674
 1150SOL    HW3 4604   3.147   3.499   1.784 -0.2718  0.9188 -0.2485
 1150SOL    MW4 4605   3.157   3.488   1.870 -0.3269 -0.0663 -0.3680
 1151SOL     OW 4606   3.351   3.642   1.980  0.6677 -0.1068  0.0985
 1151SOL    HW2 4607   3.438   3.610   1.958  0.7884 -0.7555  1.4716
 1151SOL    HW3 4608   3.351   3.733   1.950  1.7255 -0.1809 -0.1572
 1151SOL    MW4 4609   3.362   3.650   1.973  0.8230 -0.2022  0.2460
 1152SOL     OW 4610   3.344   3.910   1.873  0.4694  0.3699  0.1388
 1152SOL    HW2 4611   3.266   3.960   1.897  0.6165 -0.0484  1.5165
 1152SOL    HW3 4612   3.341   3.906   1.777 -0.9617  0.7305  0.1545
 1152SOL    MW4 4613   3.333   3.916   1.863  0.3002  0.3622  0.3227
 1153SOL     OW 4614   3.123   4.036   1.957 -0.1260 -0.1578 -0.1141
 1153SOL    HW2 4615   3.156   4.011   2.043  1.6349 -0.9147 -0.9571
 1153SOL    HW3 4616   3.041   3.987   1.947  0.0187 -0.6084  0.8445
 1153SOL    MW4 4617   3.117   4.026   1.967  0.1254 -0.3166 -0.0988
 1154SOL     OW 4618   3.143   4.281   1.840  0.2479  0.4144  0.5404
 1154SOL    HW2 4619   3.139   4.193   1.876  0.8601 -0.0034 -0.3989
 1154SOL    HW3 4620   3.064   4.324   1.873  0.3349 -0.2463  1.6140
 1154SOL    MW4 4621   3.132   4.275   1.849  0.3400  0.2723  0.5583
 1155SOL     OW 4622   3.364   4.372   1.988 -0.4279 -0.4218 -0.3347
 1155SOL    HW2 4623   3.444   4.329   1.958 -0.4005 -1.2292  0.8635
 1155SOL    HW3 4624   3.294   4.330   1.938 -0.1092  0.4683 -1.5801
 1155SOL    MW4 4625   3.365   4.361   1.977 -0.3824 -0.4110 -0.3409
 1156SOL     OW 4626   3.820   4.653   1.871 -0.1006  0.2419 -0.2203
 1156SOL    HW2 4627   3.827   4.562   1.901  1.4542  0.4048 -0.0361
 1156SOL    HW3 4628   3.742   4.687   1.914 -1.2046 -1.2599 -0.9718
 1156SOL    MW4 4629   3.810   4.645   1.880 -0.0410  0.0648 -0.2952
 1157SOL     OW 4630   3.603   0.093   1.986 -0.4320  0.1520 -0.1537
 1157SOL    HW2 4631   3.586   0.103   2.080  0.9042 -0.3721  0.1467
 1157SOL    HW3 4632   3.524   0.051   1.952 -1.1582  0.8475  0.6314
 1157SOL    MW4 4633   3.590   0.089   1.994 -0.3514  0.1746 -0.0104
 1158SOL     OW 4634   3.595   0.354   1.877  0.0136 -0.1875  0.1190
 1158SOL    HW2 4635   3.606   0.265   1.909  1.3169 -0.2032 -0.3296
 1158SOL    HW3 4636   3.578   0.344   1.783 -0.6686  0.0006  0.2206
 1158SOL    MW4 4637   3.594   0.341   1.869  0.0956 -0.1647  0.0732
 1159SOL     OW 4638   3.790   0.508   2.005 -0.0718 -0.0185  0.2314
 1159SOL    HW2 4639   3.789   0.593   1.960 -0.3635  0.1600  0.5677
 1159SOL    HW3 4640   3.724   0.456   1.960  1.5698 -0.8061 -1.3536
 1159SOL    MW4 4641   3.781   0.512   1.993  0.1059 -0.0989  0.0668
 1160SOL     OW 4642   3.813   0.744   1.860  0.1197 -0.4505 -0.1556
 1160SOL    HW2 4643   3.740   0.801   1.884  0.4768  0.2442 -0.6936
 1160SOL    HW3 4644   3.812   0.743   1.764 -0.1161 -1.6571 -0.1479
 1160SOL    MW4 4645   3.804   0.751   1.850  0.1357 -0.5180 -0.2255
 1161SOL     OW 4646   3.609   0.900   1.962  0.1856  0.2597  0.4070
 1161SOL    HW2 4647   3.601   0.992   1.935  0.7526 -0.2102 -1.3655
 1161SOL    HW3 4648   3.532   0.858   1.925  1.4823 -0.5934 -1.3524
 1161SOL    MW4 4649   3.597   0.907   1.954  0.4313  0.0852 -0.0589
 1162SOL     OW 4650   3.592   1.186   1.847 -0.0602  0.0194 -0.0241
 1162SOL    HW2 4651   3.508   1.225   1.872  0.4302  1.2165 -0.2321
 1162SOL    HW3 4652   3.591   1.186   1.751 -0.2087 -0.8223 -0.0287
 1162SOL    MW4 4653   3.581   1.191   1.837 -0.0153  0.0662 -0.0521
 1163SOL     OW 4654   3.823   1.278   1.982 -0.0491  0.0909  0.3088
 1163SOL    HW2 4655   3.818   1.281   2.077  2.0975 -1.7500  0.4922
 1163SOL    HW3 4656   3.736   1.250   1.954 -0.4858 -0.0070  1.7516
 1163SOL    MW4 4657   3.811   1.275   1.991  0.1764 -0.1647  0.5233
 1164SOL     OW 4658   3.815   1.547   1.894 -0.3144  0.3381 -0.0452
 1164SOL    HW2 4659   3.878   1.604   1.938 -2.4391  1.9943  0.9141
 1164SOL    HW3 4660   3.824   1.463   1.940  0.5228  0.8203  0.6986
 1164SOL    MW4 4661   3.824   1.543   1.906 -0.4845  0.6202  0.1795
 1165SOL     OW 4662   3.580   1.658   1.961 -0.3540  0.2182 -0.2381
 1165SOL    HW2 4663   3.599   1.751   1.943  0.6346 -0.1972 -1.3953
 1165SOL    HW3 4664   3.658   1.612   1.932 -0.0822 -0.8234  2.0593
 1165SOL    MW4 4665   3.593   1.664   1.955 -0.1879  0.0259 -0.0876
 1166SOL     OW 4666   3.581   1.921   1.862 -0.4839  0.3511  0.6455
 1166SOL    HW2 4667   3.654   1.975   1.892  0.6153 -0.7879  0.0697
 1166SOL    HW3 4668   3.592   1.918   1.766 -0.6180 -0.7699  0.6634
 1166SOL    MW4 4669   3.592   1.928   1.853 -0.3564  0.0530  0.5720
 1167SOL     OW 4670   3.790   2.073   1.950 -0.0407  0.3794 -0.2430
 1167SOL    HW2 4671   3.879   2.040   1.937  0.4573  1.2621  0.8552
 1167SOL    HW3 4672   3.791   2.160   1.909  0.2788  1.3451  1.7538
 1167SOL    MW4 4673   3.802   2.080   1.943  0.0672  0.6232  0.1653
 1168SOL     OW 4674   3.829   2.341   1.880  0.0948 -0.1393  0.4566
 1168SOL    HW2 4675   3.914   2.371   1.911  0.0591  0.9551 -0.4461
 1168SOL    HW3 4676   3.769   2.413   1.900 -0.3291 -0.3005 -0.2083
 1168SOL    MW4 4677   3.833   2.355   1.886  0.0341 -0.0160  0.2497
 1169SOL     OW 4678   3.642   2.506   2.001 -0.0485 -0.0124 -0.5482
 1169SOL    HW2 4679   3.614   2.586   1.957  0.4173 -0.0440 -0.9048
 1169SOL    HW3 4680   3.576   2.441   1.976 -1.4453  0.7027  1.2161
 1169SOL    MW4 4681   3.630   2.508   1.992 -0.1712  0.0777 -0.3623
 1170SOL     OW 4682   3.618   2.749   1.887  0.0592 -0.5091  0.0954
 1170SOL    HW2 4683   3.682   2.798   1.939 -0.7653 -0.2190  0.8475
 1170SOL    HW3 4684   3.535   2.793   1.904 -0.1781 -0.2577 -1.6715
 1170SOL    MW4 4685   3.616   2.761   1.896 -0.0808 -0.4377 -0.0383
 1171SOL     OW 4686   3.815   2.896   2.016  0.0775  0.0960  0.4175
 1171SOL    HW2 4687   3.836   2.919   2.107 -0.5580  0.6778  0.4261
 1171SOL    HW3 4688   3.823   2.979   1.969  0.3252 -0.1902 -0.0454
 1171SOL    MW4 4689   3.819   2.910   2.022  0.0262  0.1352  0.3574
 1172SOL     OW 4690   3.818   3.147   1.887 -0.2018 -0.5707  0.1096
 1172SOL    HW2 4691   3.734   3.181   1.917 -0.2271  0.0714 -0.6735
 1172SOL    HW3 4692   3.808   3.140   1.792  0.9328  0.3894 -0.0921
 1172SOL    MW4 4693   3.806   3.151   1.878 -0.0556 -0.3595 -0.0204
 1173SOL     OW 4694   3.547   3.236   1.993 -0.4819 -0.5238 -0.9270
 1173SOL    HW2 4695   3.568   3.248   2.085  0.8724 -1.0314 -1.1540
 1173SOL    HW3 4696   3.561   3.322   1.954 -0.1131 -0.5380 -0.8276
 1173SOL    MW4 4697   3.552   3.249   2.000 -0.2546 -0.5925 -0.9439
 1174SOL     OW 4698   3.578   3.496   1.899 -0.2234  0.0390 -0.5114
 1174SOL    HW2 4699   3.670   3.498   1.926 -0.1528 -0.3965 -0.7165
 1174SOL    HW3 4700   3.581   3.490   1.804 -0.4738  1.4982 -0.6248
 1174SOL    MW4 4701   3.591   3.496   1.890 -0.2475  0.1740 -0.5534
 1175SOL     OW 4702   3.835   3.561   1.979 -0.7055  0.2647 -0.1100
 1175SOL    HW2 4703   3.916   3.530   1.940 -1.4006 -0.9707 -0.6085
 1175SOL    HW3 4704   3.832   3.654   1.958  0.4641  0.2710 -0.2803
 1175SOL    MW4 4705   3.845   3.569   1.971 -0.6428  0.1028 -0.1984
 1176SOL     OW 4706   3.814   3.830   1.925  0.6113  0.0730  0.3290
 1176SOL    HW2 4707   3.731   3.873   1.946  0.7927  0.2907  0.5928
 1176SOL    HW3 4708   3.816   3.829   1.829  0.2890  0.0378  0.3216
 1176SOL    MW4 4709   3.803   3.836   1.915  0.5927  0.0970  0.3628
 1177SOL     OW 4710   3.571   4.014   1.973 -0.0829 -0.1309  0.1595
 1177SOL    HW2 4711   3.564   4.016   2.069 -1.3745  0.0182  0.0666
 1177SOL    HW3 4712   3.488   3.978   1.944  0.1717  0.1571 -0.9354
 1177SOL    MW4 4713   3.559   4.009   1.982 -0.2201 -0.0734  0.0027
 1178SOL     OW 4714   3.592   4.270   1.863 -0.1177  0.0165  0.1583
 1178SOL    HW2 4715   3.668   4.313   1.902  0.3686 -0.7689  0.0960
 1178SOL    HW3 4716   3.588   4.185   1.906 -1.0003  0.0696  0.1948
 1178SOL    MW4 4717   3.602   4.265   1.874 -0.1702 -0.0801  0.1550
 1179SOL     OW 4718   3.809   4.401   1.987  0.2385 -0.2260  0.2490
 1179SOL    HW2 4719   3.817   4.378   2.080  1.3992  0.2005  0.2681
 1179SOL    HW3 4720   3.873   4.345   1.943 -0.0973 -0.2124 -0.2620
 1179SOL    MW4 4721   3.819   4.390   1.994  0.3474 -0.1678  0.1841
 1180SOL     OW 4722   4.266   4.638   1.878  0.0774  0.6684  0.3429
 1180SOL    HW2 4723   4.194   4.682   1.923 -0.8470 -1.4621  0.9591
 1180SOL    HW3 4724   4.345   4.682   1.911 -0.7320  0.7827  2.1834
 1180SOL    MW4 4725   4.267   4.650   1.888 -0.1516  0.4025  0.6670
 1181SOL     OW 4726   4.045   0.082   2.002 -0.3509  0.3613  0.1899
 1181SOL    HW2 4727   4.039   0.088   2.097 -1.4432  3.6619 -0.0422
 1181SOL    HW3 4728   3.961   0.043   1.976 -0.0226 -0.6142  0.5433
 1181SOL    MW4 4729   4.033   0.078   2.011 -0.4516  0.6681  0.2058
 1182SOL     OW 4730   4.035   0.365   1.907 -0.0728 -0.0368  0.1400
 1182SOL    HW2 4731   4.033   0.270   1.911 -0.9706 -0.0228  0.0629
 1182SOL    HW3 4732   3.950   0.393   1.941  0.2016  0.7394  0.2152
 1182SOL    MW4 4733   4.023   0.356   1.912 -0.1550  0.0674  0.1397
 1183SOL     OW 4734   4.231   0.521   2.005  0.0941  0.4143  0.0291
 1183SOL    HW2 4735   4.231   0.530   2.100  0.1611 -0.2805  0.1003
 1183SOL    HW3 4736   4.154   0.468   1.986  1.9749 -2.4449  0.0167
 1183SOL    MW4 4737   4.221   0.515   2.015  0.3510 -0.0547  0.0370
 1184SOL     OW 4738   4.247   0.780   1.908 -0.0000 -0.3351 -0.0192
 1184SOL    HW2 4739   4.227   0.695   1.949 -1.9173 -0.4191 -1.0712
 1184SOL    HW3 4740   4.238   0.763   1.814  2.3453  0.3710 -0.4120
 1184SOL    MW4 4741   4.243   0.766   1.901  0.0563 -0.2530 -0.2099
 1185SOL     OW 4742   4.017   0.868   2.028  0.2927  0.0168  0.3917
 1185SOL    HW2 4743   4.102   0.840   1.994 -0.3040 -2.0788  0.5300
 1185SOL    HW3 4744   3.953   0.816   1.979 -0.7933 -0.0438  1.8372
 1185SOL    MW4 4745   4.019   0.858   2.017  0.0706 -0.2678  0.6006
 1186SOL     OW 4746   4.038   1.121   1.885  0.4674 -0.1958 -0.0584
 1186SOL    HW2 4747   4.046   1.031   1.918  1.3603  0.0680  0.4798
 1186SOL    HW3 4748   3.963   1.158   1.932  0.5947 -0.4100  0.3124
 1186SOL    MW4 4749   4.029   1.114   1.896  0.6022 -0.1893  0.0616
 1187SOL     OW 4750   4.249   1.271   1.991  0.2742  0.2458 -0.2686
 1187SOL    HW2 4751   4.232   1.281   2.085 -0.1245 -1.1363 -0.1765
 1187SOL    HW3 4752   4.182   1.209   1.961  0.5590  0.4761 -1.4184
 1187SOL    MW4 4753   4.238   1.264   2.000  0.2584  0.0938 -0.4081
 1188SOL     OW 4754   4.269   1.538   1.944 -0.2238 -0.2234  0.0757
 1188SOL    HW2 4755   4.251   1.445   1.959 -0.2380 -0.3577 -0.7382
 1188SOL    HW3 4756   4.280   1.545   1.849  2.8806  0.0508  0.3861
 1188SOL    MW4 4757   4.268   1.526   1.933  0.1841 -0.2049  0.0094
 1189SOL     OW 4758   4.017   1.683   2.012  0.6527 -0.3234  0.0080
 1189SOL    HW2 4759   4.015   1.670   2.107  0.1666 -1.0009 -0.0898
 1189SOL    HW3 4760   4.090   1.629   1.982 -0.0175 -1.1598 -0.1487
 1189SOL    MW4 4761   4.026   1.674   2.021  0.5002 -0.5232 -0.0257
 1190SOL     OW 4762   4.037   1.927   1.889  0.1815 -0.2355 -0.3571
 1190SOL    HW2 4763   4.045   1.837   1.919  1.6449 -0.6609 -1.9165
 1190SOL    HW3 4764   4.067   1.924   1.798 -0.1583  1.7448 -0.5504
 1190SOL    MW4 4765   4.042   1.915   1.881  0.3300 -0.0303 -0.5884
 1191SOL     OW 4766   4.252   2.064   1.996 -0.2329  0.1622  0.0039
 1191SOL    HW2 4767   4.263   2.054   2.091 -0.9007  2.3581  0.3294
 1191SOL    HW3 4768   4.170   2.019   1.977 -0.7125  0.7359  0.6720
 1191SOL    MW4 4769   4.243   2.057   2.006 -0.3843  0.5279  0.1349
 1192SOL     OW 4770   4.238   2.330   1.902 -0.5491  0.0235  0.0489
 1192SOL    HW2 4771   4.234   2.243   1.942  0.6446 -0.3251 -0.5643
 1192SOL    HW3 4772   4.321   2.366   1.933 -0.1087  0.1573 -1.2916
 1192SOL    MW4 4773   4.248   2.323   1.912 -0.3328 -0.0048 -0.2090
 1193SOL     OW 4774   4.039   2.501   1.997 -0.4529 -0.8100 -0.0095
 1193SOL    HW2 4775   4.049   2.490   2.091 -2.6320  0.0148  0.3461
 1193SOL    HW3 4776   4.103   2.441   1.958  1.4893 -0.0666  1.9871
 1193SOL    MW4 4777   4.048   2.491   2.004 -0.4845 -0.6032  0.3011
 1194SOL     OW 4778   4.004   2.755   1.889 -0.1086 -0.5195 -0.0955
 1194SOL    HW2 4779   4.021   2.670   1.930  1.1612 -0.6834 -0.9333
 1194SOL    HW3 4780   3.934   2.794   1.942  1.3500 -0.8106  2.0972
 1194SOL    MW4 4781   3.997   2.749   1.902  0.2511 -0.5794  0.0833
 1195SOL     OW 4782   4.251   2.863   1.974 -0.3106  0.0853  0.3855
 1195SOL    HW2 4783   4.270   2.846   2.067 -0.6941  2.9825  1.0311
 1195SOL    HW3 4784   4.167   2.821   1.958 -0.6746  0.3481  1.5946
 1195SOL    MW4 4785   4.243   2.855   1.984 -0.4096  0.5021  0.6303
 1196SOL     OW 4786   4.313   3.122   1.858 -0.3676 -0.4406 -0.2752
 1196SOL    HW2 4787   4.237   3.157   1.905 -0.0172  0.8702 -0.6685
 1196SOL    HW3 4788   4.307   3.027   1.870 -2.5473 -0.4163 -1.0069
 1196SOL    MW4 4789   4.302   3.114   1.866 -0.6089 -0.2646 -0.4234
 1197SOL     OW 4790   4.080   3.201   1.989  0.3946 -0.3308 -0.0925
 1197SOL    HW2 4791   4.081   3.202   2.085  1.8175 -2.6647 -0.0452
 1197SOL    HW3 4792   3.998   3.158   1.966 -0.5737  1.4286  0.0468
 1197SOL    MW4 4793   4.070   3.195   1.999  0.4544 -0.4065 -0.0677
 1198SOL     OW 4794   4.056   3.457   1.879 -0.0700 -0.1027  0.7481
 1198SOL    HW2 4795   4.133   3.494   1.923  0.5567 -1.7703  1.1116
 1198SOL    HW3 4796   4.059   3.364   1.901 -0.9281 -0.5927 -1.0967
 1198SOL    MW4 4797   4.067   3.449   1.888 -0.1001 -0.3872  0.5527
 1199SOL     OW 4798   4.279   3.616   1.978 -0.0685 -0.0671 -0.1761
 1199SOL    HW2 4799   4.257   3.701   1.941 -2.6523 -0.8635 -0.6021
 1199SOL    HW3 4800   4.366   3.596   1.943  1.1447  2.9604  0.9987
 1199SOL    MW4 4801   4.287   3.624   1.968 -0.2494  0.2272 -0.0774
 1200SOL     OW 4802   4.283   3.880   1.901 -0.0547  0.5063 -0.1081
 1200SOL    HW2 4803   4.369   3.917   1.917 -0.2703  0.8932  0.1827
 1200SOL    HW3 4804   4.275   3.876   1.806  0.1871  0.6926 -0.1360
 1200SOL    MW4 4805   4.293   3.884   1.891 -0.0510  0.5820 -0.0733
 1201SOL     OW 4806   4.032   3.977   1.959 -0.1383 -0.3635 -0.5621
 1201SOL    HW2 4807   4.108   3.920   1.949 -0.2216 -0.7224  0.7448
 1201SOL    HW3 4808   3.957   3.917   1.959 -0.2832 -0.1841  0.0321
 1201SOL    MW4 4809   4.032   3.962   1.958 -0.1683 -0.3872 -0.3114
 1202SOL     OW 4810   4.009   4.255   1.872  0.4179 -0.1451  0.4640
 1202SOL    HW2 4811   4.087   4.306   1.891  0.2434  0.3282 -0.0811
 1202SOL    HW3 4812   4.025   4.169   1.912  1.0473  0.0792  0.6820
 1202SOL    MW4 4813   4.021   4.250   1.880  0.4778 -0.0529  0.4208
 1203SOL     OW 4814   4.252   4.365   1.956 -0.4133 -0.0866 -0.4105
 1203SOL    HW2 4815   4.259   4.383   2.050 -0.7826 -0.0510 -0.3911
 1203SOL    HW3 4816   4.257   4.451   1.915  1.4002 -0.2234 -0.5216
 1203SOL    MW4 4817   4.254   4.379   1.963 -0.2227 -0.0997 -0.4226
 1204SOL     OW 4818   0.198   0.017   2.376 -0.2050 -0.1151  0.0489
 1204SOL    HW2 4819   0.206   0.034   2.469 -1.2010 -0.0637  0.1340
 1204SOL    HW3 4820   0.284   0.037   2.340  0.1358  0.0135  0.9322
 1204SOL    MW4 4821   0.210   0.022   2.383 -0.2914 -0.0911  0.1767
 1205SOL     OW 4822   4.469   0.158   2.284 -0.1697 -0.2364  0.0145
 1205SOL    HW2 4823   4.558   0.128   2.300  0.3946  1.6283  0.4592
 1205SOL    HW3 4824   4.458   0.149   2.189 -0.0377 -1.8363  0.1286
 1205SOL    MW4 4825   4.479   0.153   2.273 -0.0777 -0.2015  0.0882
 1206SOL     OW 4826   4.465   0.424   2.349  0.3463  0.4778 -0.1795
 1206SOL    HW2 4827   4.552   0.449   2.319  1.2391 -1.0794  1.0425
 1206SOL    HW3 4828   4.458   0.331   2.329 -0.8430  0.4893  0.1557
 1206SOL    MW4 4829   4.476   0.415   2.343  0.3071  0.2739  0.0257
 1207SOL     OW 4830   0.230   0.488   2.252  0.1443 -0.3924  0.1070
 1207SOL    HW2 4831   0.313   0.455   2.287  0.3752  0.5127  0.4307
 1207SOL    HW3 4832   0.241   0.485   2.157  0.7366  0.1648  0.1496
 1207SOL    MW4 4833   0.242   0.483   2.244  0.2529 -0.1995  0.1554
 1208SOL     OW 4834   0.238   0.756   2.358  0.3587 -0.2651  0.1412
 1208SOL    HW2 4835   0.217   0.747   2.451  0.3575 -0.5746  0.1102
 1208SOL    HW3 4836   0.227   0.668   2.322 -1.0420  0.1296 -0.4425
 1208SOL    MW4 4837   0.234   0.743   2.365  0.1737 -0.2539  0.0598
 1209SOL     OW 4838   0.016   0.921   2.311 -0.3443  0.3285 -0.1161
 1209SOL    HW2 4839   0.088   0.861   2.332 -1.1614 -1.3437 -1.9777
 1209SOL    HW3 4840  -0.003   0.904   2.219 -2.3655  1.5766  0.0530
 1209SOL    MW4 4841   0.023   0.911   2.302 -0.7188  0.2725 -0.3393
 1210SOL     OW 4842   0.004   1.220   2.372 -0.5525 -0.0623  0.1395
 1210SOL    HW2 4843  -0.011   1.224   2.466  1.7722 -1.0806  0.5739
 1210SOL    HW3 4844   0.007   1.127   2.351 -0.2430  0.1502 -0.8232
 1210SOL    MW4 4845   0.002   1.208   2.381 -0.2050 -0.1687  0.0701
 1211SOL     OW 4846   0.256   1.257   2.246  0.0119 -0.1635 -0.3145
 1211SOL    HW2 4847   0.180   1.229   2.296 -0.0351 -1.1095 -0.9029
 1211SOL    HW3 4848   0.230   1.248   2.155  0.1748  1.3401 -0.5276
 1211SOL    MW4 4849   0.243   1.252   2.241  0.0272 -0.0899 -0.4203
 1212SOL     OW 4850   0.239   1.514   2.341  0.1927  0.2634  0.2533
 1212SOL    HW2 4851   0.241   1.514   2.437  1.5389 -1.2763  0.2440
 1212SOL    HW3 4852   0.250   1.422   2.317  2.9735  0.9650 -1.4042
 1212SOL    MW4 4853   0.241   1.502   2.350  0.7372  0.1527  0.0334
 1213SOL     OW 4854   0.013   1.663   2.270  0.1221 -0.4512 -0.1491
 1213SOL    HW2 4855   0.001   1.737   2.330 -0.4161 -1.4407  0.9939
 1213SOL    HW3 4856   0.098   1.626   2.295  0.0312 -0.6900 -0.1946
 1213SOL    MW4 4857   0.023   1.668   2.281  0.0391 -0.6132 -0.0045
 1214SOL     OW 4858   4.468   1.918   2.385 -0.0740 -0.5528 -0.2656
 1214SOL    HW2 4859   4.399   1.961   2.335  0.7000 -0.0583 -0.9297
 1214SOL    HW3 4860   4.549   1.962   2.357  0.5471 -1.3478  0.2463
 1214SOL    MW4 4861   4.470   1.930   2.374  0.1101 -0.5925 -0.2859
 1215SOL     OW 4862   0.207   2.034   2.252 -0.5281 -0.2817 -0.0627
 1215SOL    HW2 4863   0.296   2.000   2.263 -0.1620  0.7163  0.0366
 1215SOL    HW3 4864   0.200   2.054   2.159 -0.9392 -1.1301 -0.2301
 1215SOL    MW4 4865   0.218   2.032   2.241 -0.5340 -0.2623 -0.0718
 1216SOL     OW 4866   0.235   2.288   2.377 -0.0547  0.0468 -0.0223
 1216SOL    HW2 4867   0.216   2.277   2.470  1.3045 -1.6888  0.0808
 1216SOL    HW3 4868   0.219   2.202   2.339 -0.4890  0.7171 -1.3798
 1216SOL    MW4 4869   0.230   2.276   2.384  0.0673 -0.0937 -0.1879
 1217SOL     OW 4870   4.475   2.391   2.318  0.1616  0.3569  0.1356
 1217SOL    HW2 4871   4.472   2.485   2.339 -0.2682  0.4383 -0.2606
 1217SOL    HW3 4872   4.567   2.367   2.325  0.3595  0.9521 -0.3498
 1217SOL    MW4 4873   4.487   2.400   2.322  0.1311  0.4461  0.0193
 1218SOL     OW 4874   0.037   2.668   2.322  0.1899  0.2539  0.4180
 1218SOL    HW2 4875   0.040   2.667   2.418  1.6123 -0.8506  0.3887
 1218SOL    HW3 4876   0.094   2.742   2.297 -1.7799  1.8106  0.4406
 1218SOL    MW4 4877   0.045   2.678   2.331  0.1176  0.3135  0.4168
 1219SOL     OW 4878   0.218   2.873   2.254 -0.2465  0.1340  0.0191
 1219SOL    HW2 4879   0.294   2.819   2.276 -0.0719  0.4392  0.1753
 1219SOL    HW3 4880   0.207   2.861   2.160  0.0511  0.1544 -0.0203
 1219SOL    MW4 4881   0.227   2.865   2.245 -0.1842  0.1771  0.0348
 1220SOL     OW 4882   0.216   3.135   2.353  0.3147  0.6339  0.6326
 1220SOL    HW2 4883   0.137   3.182   2.325  1.0461  0.0149 -2.5963
 1220SOL    HW3 4884   0.200   3.044   2.329  1.8073  0.4129  0.4457
 1220SOL    MW4 4885   0.203   3.129   2.346  0.6081  0.5229  0.1822
 1221SOL     OW 4886   4.474   3.238   2.296 -0.0342 -0.5262  0.3825
 1221SOL    HW2 4887   4.466   3.321   2.342  1.1849 -0.0313 -0.2693
 1221SOL    HW3 4888   4.480   3.262   2.203 -1.8860 -1.4708 -0.0129
 1221SOL    MW4 4889   4.473   3.252   2.290 -0.1178 -0.5856  0.2444
 1222SOL     OW 4890   4.485   3.496   2.401  0.1522  0.1566  0.0204
 1222SOL    HW2 4891   4.456   3.495   2.493 -1.0251 -0.3084 -0.3439
 1222SOL    HW3 4892   4.422   3.554   2.357  0.0462 -0.4986 -0.7017
 1222SOL    MW4 4893   4.473   3.503   2.408 -0.0167  0.0091 -0.1228
 1223SOL     OW 4894   0.228   3.564   2.267  0.7313  0.4615 -0.0571
 1223SOL    HW2 4895   0.312   3.527   2.295  0.1597 -1.0156 -0.2370
 1223SOL    HW3 4896   0.164   3.525   2.327 -0.3896 -1.9342 -2.6891
 1223SOL    MW4 4897   0.231   3.554   2.279  0.5080 -0.0496 -0.4282
 1224SOL     OW 4898   0.221   3.854   2.383  0.1805 -0.2300 -0.5469
 1224SOL    HW2 4899   0.143   3.897   2.349 -0.2464 -1.0644 -0.6459
 1224SOL    HW3 4900   0.223   3.769   2.338  0.5196 -0.6666  0.2746
 1224SOL    MW4 4901   0.211   3.848   2.373  0.1689 -0.3977 -0.4516
 1225SOL     OW 4902   4.479   3.983   2.249  0.5914  0.0461  0.4860
 1225SOL    HW2 4903   4.491   4.072   2.281  0.9458  0.0272  0.4037
 1225SOL    HW3 4904   4.490   3.990   2.154  1.3377 -0.2067  0.5484
 1225SOL    MW4 4905   4.482   3.996   2.240  0.7366  0.0103  0.4830
 1226SOL     OW 4906   4.467   4.248   2.330  0.0663 -0.2447  0.0130
 1226SOL    HW2 4907   4.460   4.241   2.425 -0.6691  0.6106  0.0309
 1226SOL    HW3 4908   4.538   4.311   2.315  0.0926 -0.2779 -0.0001
 1226SOL    MW4 4909   4.475   4.255   2.340 -0.0267 -0.1364  0.0138
 1227SOL     OW 4910   0.198   4.377   2.277  0.1341  0.5623 -0.1243
 1227SOL    HW2 4911   0.279   4.346   2.318 -0.2483 -1.0604 -0.5574
 1227SOL    HW3 4912   0.187   4.466   2.310  0.5492 -0.2354  2.2502
 1227SOL    MW4 4913   0.208   4.385   2.287  0.1384  0.2427  0.1316
 1228SOL     OW 4914   0.699   4.649   2.377 -0.2040  0.2566 -0.7528
 1228SOL    HW2 4915   0.681   4.638   2.470  0.6162 -1.0034 -0.7369
 1228SOL    HW3 4916   0.775   4.707   2.374 -0.5356  0.6971 -0.6515
 1228SOL    MW4 4917   0.706   4.655   2.389 -0.1395  0.1483 -0.7372
 1229SOL     OW 4918   0.454   0.110   2.283 -0.3086  0.3951 -0.1600
 1229SOL    HW2 4919   0.537   0.068   2.305 -0.0285  1.5912  1.1222
 1229SOL    HW3 4920   0.454   0.114   2.187 -0.2699 -2.3113 -0.3242
 1229SOL    MW4 4921   0.465   0.105   2.273 -0.2666  0.1959 -0.0126
 1230SOL     OW 4922   0.462   0.370   2.357 -0.0113  0.0056 -0.2888
 1230SOL    HW2 4923   0.469   0.370   2.452 -0.8262 -1.5816 -0.2155
 1230SOL    HW3 4924   0.440   0.280   2.334 -1.5533  0.7440 -1.8392
 1230SOL    MW4 4925   0.460   0.358   2.366 -0.3222 -0.1064 -0.4835
 1231SOL     OW 4926   0.687   0.478   2.251 -0.4305  0.0590 -0.3022
 1231SOL    HW2 4927   0.681   0.569   2.280 -0.2086 -0.0348  0.0374
 1231SOL    HW3 4928   0.610   0.435   2.288  0.0440 -0.1453  0.4589
 1231SOL    MW4 4929   0.676   0.485   2.260 -0.3386  0.0197 -0.1571
 1232SOL     OW 4930   0.686   0.729   2.349 -0.4257  0.7722  0.1693
 1232SOL    HW2 4931   0.691   0.724   2.444 -0.6184  0.5565  0.1673
 1232SOL    HW3 4932   0.610   0.785   2.332 -1.5405 -0.7303  0.1203
 1232SOL    MW4 4933   0.677   0.736   2.359 -0.5981  0.5454  0.1626
 1233SOL     OW 4934   0.474   0.889   2.289  0.1345 -0.4193 -0.3580
 1233SOL    HW2 4935   0.388   0.861   2.321  0.3508 -0.1462  0.4694
 1233SOL    HW3 4936   0.472   0.869   2.196 -1.0955  0.2427 -0.4832
 1233SOL    MW4 4937   0.462   0.883   2.281  0.0007 -0.2961 -0.2654
 1234SOL     OW 4938   0.484   1.159   2.385 -0.2236 -0.3635 -0.1855
 1234SOL    HW2 4939   0.485   1.069   2.352 -1.6261 -0.3935 -0.1952
 1234SOL    HW3 4940   0.425   1.205   2.325  0.8402  0.6761 -0.4454
 1234SOL    MW4 4941   0.476   1.153   2.373 -0.2683 -0.2304 -0.2213
 1235SOL     OW 4942   0.715   1.264   2.284 -0.3385  0.0877 -0.1290
 1235SOL    HW2 4943   0.708   1.357   2.304  0.0300  0.1633 -0.3377
 1235SOL    HW3 4944   0.641   1.224   2.330 -0.0257  0.3752  0.6425
 1235SOL    MW4 4945   0.704   1.271   2.293 -0.2487  0.1355 -0.0548
 1236SOL     OW 4946   0.656   1.542   2.355 -0.2191  0.3424 -0.6110
 1236SOL    HW2 4947   0.672   1.538   2.449  2.3889  1.2556 -0.9687
 1236SOL    HW3 4948   0.739   1.575   2.318 -1.7713  1.7032 -3.0300
 1236SOL    MW4 4949   0.669   1.546   2.362 -0.0798  0.6424 -0.9773
 1237SOL     OW 4950   0.440   1.678   2.241 -0.2235  0.2089 -0.0596
 1237SOL    HW2 4951   0.521   1.651   2.284  0.2262  0.6769 -0.5905
 1237SOL    HW3 4952   0.374   1.618   2.273  0.2705  0.0383  0.6498
 1237SOL    MW4 4953   0.442   1.667   2.251 -0.0990  0.2481 -0.0360
 1238SOL     OW 4954   0.445   1.931   2.336 -0.2618 -0.4299 -0.1912
 1238SOL    HW2 4955   0.525   1.972   2.301 -0.2017  1.6574  2.2053
 1238SOL    HW3 4956   0.440   1.846   2.293  2.6392 -0.1154 -1.2417
 1238SOL    MW4 4957   0.455   1.925   2.326  0.1288 -0.1131 -0.0136
 1239SOL     OW 4958   0.664   2.044   2.226  0.3073 -0.3476  0.1344
 1239SOL    HW2 4959   0.746   2.005   2.257  1.9459  1.0522 -2.2331
 1239SOL    HW3 4960   0.664   2.132   2.263 -0.8860 -0.8202  1.3120
 1239SOL    MW4 4961   0.675   2.051   2.235  0.3660 -0.2253 -0.0224
 1240SOL     OW 4962   0.698   2.301   2.344 -0.3429 -0.3399  0.1061
 1240SOL    HW2 4963   0.691   2.318   2.437  2.6074  0.1008  0.2852
 1240SOL    HW3 4964   0.763   2.364   2.312 -0.5184 -1.1795 -2.0401
 1240SOL    MW4 4965   0.706   2.311   2.352  0.0232 -0.3927 -0.1531
 1241SOL     OW 4966   0.453   2.421   2.265 -0.0315 -0.0485 -0.3722
 1241SOL    HW2 4967   0.529   2.370   2.295  0.1082  1.0183  1.1703
 1241SOL    HW3 4968   0.378   2.378   2.306  0.1387  1.2846  1.3829
 1241SOL    MW4 4969   0.454   2.409   2.275  0.0094  0.2682  0.0629
 1242SOL     OW 4970   0.400   2.679   2.349 -0.7496 -0.4381 -0.4502
 1242SOL    HW2 4971   0.428   2.678   2.440 -0.4720 -0.1160 -0.5289
 1242SOL    HW3 4972   0.401   2.587   2.322  1.2262 -0.3534 -0.7402
 1242SOL    MW4 4973   0.404   2.667   2.357 -0.4523 -0.3846 -0.4988
 1243SOL     OW 4974   0.660   2.834   2.279  0.1311  0.5175 -0.0915
 1243SOL    HW2 4975   0.738   2.787   2.308 -0.8326 -0.1555  1.4360
 1243SOL    HW3 4976   0.587   2.777   2.302 -0.8520  1.3315 -1.1306
 1243SOL    MW4 4977   0.660   2.820   2.286 -0.1257  0.5357 -0.0269
 1244SOL     OW 4978   0.702   3.103   2.392  0.0348  0.1025 -0.1430
 1244SOL    HW2 4979   0.617   3.138   2.364 -0.7704 -0.6690  1.2986
 1244SOL    HW3 4980   0.706   3.016   2.354  0.6743  0.5500 -1.1225
 1244SOL    MW4 4981   0.691   3.096   2.384  0.0131  0.0596 -0.0820
 1245SOL     OW 4982   0.471   3.205   2.281  0.2109 -0.1090 -0.2439
 1245SOL    HW2 4983   0.379   3.178   2.290 -0.4885  1.8578 -1.2554
 1245SOL    HW3 4984   0.484   3.214   2.187  0.5678  2.5092  0.0263
 1245SOL    MW4 4985   0.460   3.203   2.270  0.1657  0.4961 -0.3419
 1246SOL     OW 4986   0.458   3.456   2.408 -0.5041  0.3889 -0.1194
 1246SOL    HW2 4987   0.531   3.503   2.368  3.1035 -2.4175  2.9138
 1246SOL    HW3 4988   0.459   3.370   2.366  0.2205 -0.8770  2.4047
 1246SOL    MW4 4989   0.468   3.451   2.397  0.0674 -0.1488  0.6137
 1247SOL     OW 4990   0.646   3.636   2.283  0.2165 -0.1431 -0.1636
 1247SOL    HW2 4991   0.666   3.727   2.306  1.2338 -0.7630  1.5282
 1247SOL    HW3 4992   0.629   3.638   2.189  1.1936  1.6424 -0.3296
 1247SOL    MW4 4993   0.646   3.648   2.274  0.4796  0.0107  0.0379
 1248SOL     OW 4994   0.684   3.916   2.348  0.3140  0.4070 -0.0826
 1248SOL    HW2 4995   0.675   3.904   2.443 -0.6488 -1.0284 -0.3487
 1248SOL    HW3 4996   0.596   3.940   2.319  0.7437  1.4610 -0.5438
 1248SOL    MW4 4997   0.671   3.918   2.357  0.2437  0.3567 -0.1786
 1249SOL     OW 4998   0.435   4.026   2.287 -0.2990  0.3719  0.0690
 1249SOL    HW2 4999   0.365   3.971   2.321 -1.6217  1.9309 -0.0470
 1249SOL    HW3 5000   0.428   4.021   2.192  0.6462 -0.5573  0.0343
 1249SOL    MW4 5001   0.425   4.018   2.279 -0.3488  0.4549  0.0491
 1250SOL     OW 5002   0.445   4.309   2.354  0.3544  0.4037 -0.1555
 1250SOL    HW2 5003   0.525   4.351   2.322 -0.0644  0.4068 -1.2017
 1250SOL    HW3 5004   0.454   4.217   2.329  0.5157  0.1798  0.6898
 1250SOL    MW4 5005   0.457   4.303   2.347  0.3204  0.3743 -0.1822
 1251SOL     OW 5006   0.686   4.390   2.251  0.1573 -0.3052  0.2404
 1251SOL    HW2 5007   0.697   4.478   2.287  3.0528 -0.2055 -0.7750
 1251SOL    HW3 5008   0.699   4.401   2.157  1.0402 -1.9065  0.1604
 1251SOL    MW4 5009   0.689   4.403   2.243  0.6558 -0.5035  0.0958
 1252SOL     OW 5010   1.130   4.640   2.363 -0.1595  0.6308  0.2076
 1252SOL    HW2 5011   1.121   4.612   2.455 -0.1675 -0.0915 -0.0052
 1252SOL    HW3 5012   1.051   4.690   2.345 -0.3680  0.3937  0.4666
 1252SOL    MW4 5013   1.118   4.643   2.373 -0.1880  0.5045  0.2136
 1253SOL     OW 5014   0.909   0.150   2.323 -0.0905 -0.5770  0.6134
 1253SOL    HW2 5015   0.925   0.238   2.357  1.8056 -1.0608  1.0337
 1253SOL    HW3 5016   0.881   0.164   2.232  0.1267  0.4516  0.6977
 1253SOL    MW4 5017   0.907   0.164   2.316  0.1883 -0.5051  0.6802
 1254SOL     OW 5018   0.925   0.415   2.398  0.5641  0.0226 -0.0615
 1254SOL    HW2 5019   0.998   0.461   2.358  0.4083 -1.4506 -2.0615
 1254SOL    HW3 5020   0.847   0.452   2.356  0.3776 -1.2310 -0.8358
 1254SOL    MW4 5021   0.924   0.426   2.387  0.5190 -0.3372 -0.4277
 1255SOL     OW 5022   1.164   0.523   2.268 -0.4253 -0.9282 -0.4835
 1255SOL    HW2 5023   1.227   0.456   2.294  2.8327  1.7361 -1.0406
 1255SOL    HW3 5024   1.161   0.519   2.173 -1.3765 -1.2809 -0.4410
 1255SOL    MW4 5025   1.172   0.514   2.259 -0.1209 -0.6233 -0.5515
 1256SOL     OW 5026   1.128   0.797   2.362 -0.3005 -0.5436  0.4423
 1256SOL    HW2 5027   1.042   0.824   2.329 -0.3977 -1.4178 -0.0438
 1256SOL    HW3 5028   1.139   0.708   2.329  1.4012  0.0533 -0.6276
 1256SOL    MW4 5029   1.118   0.789   2.354 -0.0889 -0.5803  0.2372
 1257SOL     OW 5030   0.889   0.925   2.294  0.2926  0.2230  0.2650
 1257SOL    HW2 5031   0.913   1.002   2.345 -2.0949  1.2676 -0.1540
 1257SOL    HW3 5032   0.819   0.883   2.344  0.5327 -0.8505 -0.2651
 1257SOL    MW4 5033   0.883   0.929   2.307  0.0092  0.2192  0.1397
 1258SOL     OW 5034   0.969   1.168   2.421 -0.1632 -0.1392 -0.2274
 1258SOL    HW2 5035   1.044   1.196   2.370 -1.4112  0.6167 -1.6987
 1258SOL    HW3 5036   0.897   1.223   2.390 -0.7679  1.0257  3.0458
 1258SOL    MW4 5037   0.969   1.179   2.410 -0.4076  0.1142  0.0103
 1259SOL     OW 5038   1.151   1.289   2.245 -0.3157  0.2501 -0.2192
 1259SOL    HW2 5039   1.226   1.230   2.249 -0.0414  0.6369  0.4323
 1259SOL    HW3 5040   1.119   1.281   2.155  0.3952 -0.0538 -0.4471
 1259SOL    MW4 5041   1.157   1.280   2.234 -0.1857  0.2611 -0.1633
 1260SOL     OW 5042   1.141   1.541   2.371 -0.7569  0.3017  0.5940
 1260SOL    HW2 5043   1.062   1.590   2.348 -0.1996  0.0480 -1.9461
 1260SOL    HW3 5044   1.137   1.462   2.318  1.1848  0.2536  0.4857
 1260SOL    MW4 5045   1.130   1.537   2.361 -0.4274  0.2618  0.2444
 1261SOL     OW 5046   0.901   1.670   2.275  0.2764 -0.0228  0.0198
 1261SOL    HW2 5047   0.891   1.764   2.288 -0.6597 -0.3323  1.6116
 1261SOL    HW3 5048   0.908   1.660   2.180 -0.1757  1.5958 -0.1940
 1261SOL    MW4 5049   0.901   1.681   2.264  0.0932  0.1500  0.2017
 1262SOL     OW 5050   0.899   1.932   2.316  0.1744  0.0374  0.0554
 1262SOL    HW2 5051   0.903   1.931   2.412 -1.7540 -0.2857  0.1484
 1262SOL    HW3 5052   0.970   1.991   2.290  0.4991  0.3941  1.6968
 1262SOL    MW4 5053   0.909   1.940   2.325 -0.0372  0.0417  0.2842
 1263SOL     OW 5054   1.124   2.103   2.241 -0.0275  0.0494  0.6655
 1263SOL    HW2 5055   1.194   2.053   2.281 -0.0401  0.3355  1.0433
 1263SOL    HW3 5056   1.125   2.077   2.149  0.2784 -0.2816  0.7650
 1263SOL    MW4 5057   1.133   2.093   2.234  0.0112  0.0436  0.7286
 1264SOL     OW 5058   1.112   2.347   2.356 -0.2181 -0.2066  0.0324
 1264SOL    HW2 5059   1.191   2.393   2.328 -0.0117 -0.9969 -0.7087
 1264SOL    HW3 5060   1.118   2.262   2.313 -1.1964 -0.4789  0.4295
 1264SOL    MW4 5061   1.123   2.342   2.347 -0.3200 -0.3469 -0.0131
 1265SOL     OW 5062   0.899   2.489   2.247 -0.2467 -0.5817  0.1690
 1265SOL    HW2 5063   0.967   2.432   2.284  0.7018  0.4914  0.0758
 1265SOL    HW3 5064   0.897   2.467   2.154  0.2740 -0.2968  0.0922
 1265SOL    MW4 5065   0.908   2.478   2.240 -0.0529 -0.4027  0.1464
 1266SOL     OW 5066   0.896   2.729   2.369  0.1755 -0.0008 -0.4217
 1266SOL    HW2 5067   0.894   2.717   2.464 -0.1887 -0.1913 -0.4507
 1266SOL    HW3 5068   0.904   2.641   2.334  0.7407  0.1029 -0.5601
 1266SOL    MW4 5069   0.896   2.716   2.377  0.2020 -0.0124 -0.4437
 1267SOL     OW 5070   1.128   2.856   2.283  0.6257  0.0145 -0.5479
 1267SOL    HW2 5071   1.205   2.804   2.305 -0.0048 -1.2448 -1.2413
 1267SOL    HW3 5072   1.055   2.807   2.322  0.0753  0.6218 -0.8213
 1267SOL    MW4 5073   1.128   2.842   2.291  0.4699 -0.0715 -0.6754
 1268SOL     OW 5074   1.127   3.125   2.373  0.2958 -0.1375  0.0053
 1268SOL    HW2 5075   1.069   3.185   2.325 -1.8487  0.2941  2.9696
 1268SOL    HW3 5076   1.102   3.038   2.342  0.3031  0.2303 -1.0588
 1268SOL    MW4 5077   1.116   3.121   2.362  0.0136 -0.0319  0.2561
 1269SOL     OW 5078   0.900   3.252   2.239 -0.0592  0.1203 -0.0207
 1269SOL    HW2 5079   0.898   3.336   2.286  1.3269 -0.0455  0.3512
 1269SOL    HW3 5080   0.850   3.192   2.296  0.6744  0.1959  0.7092
 1269SOL    MW4 5081   0.893   3.255   2.253  0.2205  0.1082  0.1247
 1270SOL     OW 5082   0.884   3.507   2.361  0.1780 -0.1611  0.1612
 1270SOL    HW2 5083   0.879   3.478   2.452  0.2095 -1.2339 -0.1726
 1270SOL    HW3 5084   0.802   3.555   2.347  0.4966  0.6329  0.9569
 1270SOL    MW4 5085   0.872   3.509   2.371  0.2242 -0.1981  0.2224
 1271SOL     OW 5086   1.090   3.617   2.203 -0.4970 -0.2955 -0.2620
 1271SOL    HW2 5087   1.175   3.601   2.245 -0.0493  1.0033 -0.6537
 1271SOL    HW3 5088   1.026   3.576   2.261  0.4076 -1.4250 -0.0415
 1271SOL    MW4 5089   1.093   3.609   2.216 -0.3185 -0.2732 -0.2844
 1272SOL     OW 5090   1.075   3.852   2.332 -0.0323 -0.1993 -0.1510
 1272SOL    HW2 5091   1.157   3.895   2.305  0.0662 -0.6257 -0.5370
 1272SOL    HW3 5092   1.068   3.775   2.275 -1.0951  0.2532 -0.6422
 1272SOL    MW4 5093   1.085   3.847   2.321 -0.1595 -0.1957 -0.2666
 1273SOL     OW 5094   0.902   4.034   2.246 -0.1177  0.3021 -0.2415
 1273SOL    HW2 5095   0.960   3.963   2.272 -0.1247  0.3099 -0.2033
 1273SOL    HW3 5096   0.816   4.008   2.279 -0.5103 -0.6140 -1.9863
 1273SOL    MW4 5097   0.898   4.021   2.254 -0.1704  0.1822 -0.4666
 1274SOL     OW 5098   0.907   4.272   2.383 -0.2236  0.4504 -0.0903
 1274SOL    HW2 5099   0.905   4.185   2.344 -0.3279  0.6776 -0.5945
 1274SOL    HW3 5100   0.834   4.318   2.342  0.7651  1.2629 -0.9717
 1274SOL    MW4 5101   0.897   4.267   2.372 -0.1069  0.5870 -0.2732
 1275SOL     OW 5102   1.123   4.387   2.252  0.7959 -0.0641 -0.0053
 1275SOL    HW2 5103   1.052   4.337   2.291 -0.8226 -0.0786 -2.8502
 1275SOL    HW3 5104   1.111   4.476   2.285  0.3930 -0.4023  0.7596
 1275SOL    MW4 5105   1.112   4.392   2.261  0.5292 -0.1101 -0.2797
 1276SOL     OW 5106   1.548   4.637   2.371 -0.3884  0.2296  0.0175
 1276SOL    HW2 5107   1.622   4.674   2.322 -0.5461  1.0224  0.3727
 1276SOL    HW3 5108   1.471   4.664   2.321 -0.5988  1.7367  1.1439
 1276SOL    MW4 5109   1.548   4.645   2.358 -0.4370  0.5331  0.2129
 1277SOL     OW 5110   1.341   0.101   2.231 -0.2341  0.1552 -0.9114
 1277SOL    HW2 5111   1.347   0.184   2.277  0.9458 -0.9828  1.0173
 1277SOL    HW3 5112   1.270   0.054   2.275  0.8566 -0.9082 -0.2572
 1277SOL    MW4 5113   1.332   0.106   2.243  0.0654 -0.1353 -0.5705
 1278SOL     OW 5114   1.340   0.355   2.365 -0.2454  0.2820  0.2805
 1278SOL    HW2 5115   1.352   0.350   2.460  0.2839 -0.7728  0.1674
 1278SOL    HW3 5116   1.418   0.401   2.334 -0.2095  0.2482  0.3185
 1278SOL    MW4 5117   1.352   0.360   2.374 -0.1707  0.1384  0.2706
 1279SOL     OW 5118   1.547   0.533   2.291 -0.2169 -0.5214 -0.0313
 1279SOL    HW2 5119   1.626   0.480   2.295 -0.6753 -1.2183 -0.1593
 1279SOL    HW3 5120   1.533   0.549   2.197  0.4737  0.6663  0.0597
 1279SOL    MW4 5121   1.555   0.528   2.279 -0.1863 -0.4566 -0.0362
 1280SOL     OW 5122   1.569   0.807   2.370  0.1118  0.5830 -0.1158
 1280SOL    HW2 5123   1.644   0.833   2.316  0.1691  0.0734 -0.2841
 1280SOL    HW3 5124   1.559   0.713   2.354 -1.3883  0.8939 -1.1264
 1280SOL    MW4 5125   1.577   0.798   2.361 -0.0786  0.5567 -0.2713
 1281SOL     OW 5126   1.349   0.912   2.229  0.1299  0.0056  0.0409
 1281SOL    HW2 5127   1.427   0.881   2.276 -0.9178  1.6291  2.9767
 1281SOL    HW3 5128   1.276   0.872   2.275 -0.8606 -0.2341 -1.7076
 1281SOL    MW4 5129   1.350   0.903   2.241 -0.1390  0.1882  0.1974
 1282SOL     OW 5130   1.349   1.145   2.368  0.2886 -0.0181 -0.0708
 1282SOL    HW2 5131   1.341   1.119   2.460  1.1831 -0.0328  0.0101
 1282SOL    HW3 5132   1.344   1.064   2.319 -0.4393  0.0161 -0.0461
 1282SOL    MW4 5133   1.348   1.131   2.374  0.3105 -0.0155 -0.0570
 1283SOL     OW 5134   1.560   1.301   2.303  0.3936 -0.3317  0.2994
 1283SOL    HW2 5135   1.494   1.237   2.329 -0.1535  0.1220  0.0524
 1283SOL    HW3 5136   1.562   1.295   2.207  1.4186 -1.0349  0.3571
 1283SOL    MW4 5137   1.552   1.292   2.294  0.4567 -0.3648  0.2744
 1284SOL     OW 5138   1.554   1.549   2.419 -0.3369  0.0199 -0.0017
 1284SOL    HW2 5139   1.617   1.591   2.360 -0.8362 -0.2648 -0.7458
 1284SOL    HW3 5140   1.536   1.464   2.378 -1.0954  0.0403  0.2805
 1284SOL    MW4 5141   1.560   1.543   2.406 -0.5028 -0.0151 -0.0627
 1285SOL     OW 5142   1.360   1.698   2.272  0.3704  0.1109 -0.2104
 1285SOL    HW2 5143   1.434   1.667   2.324  1.1113  1.9193 -0.1326
 1285SOL    HW3 5144   1.286   1.645   2.302  0.9681  0.4640  2.0177
 1285SOL    MW4 5145   1.360   1.687   2.283  0.5469  0.3961  0.0939
 1286SOL     OW 5146   1.353   1.972   2.369  0.2308  0.2596 -0.2690
 1286SOL    HW2 5147   1.442   2.003   2.352 -0.1453  0.7991 -1.3606
 1286SOL    HW3 5148   1.344   1.894   2.314 -0.4830  1.1190 -1.4003
 1286SOL    MW4 5149   1.364   1.966   2.360  0.0869  0.4442 -0.5622
 1287SOL     OW 5150   1.580   2.063   2.261 -0.0724  0.4829  0.0491
 1287SOL    HW2 5151   1.655   2.008   2.286 -0.2142  0.7959  1.1718
 1287SOL    HW3 5152   1.573   2.051   2.166 -0.5625 -2.0273  0.3652
 1287SOL    MW4 5153   1.589   2.054   2.252 -0.1558  0.1929  0.2391
 1288SOL     OW 5154   1.565   2.344   2.380  0.1441 -0.6848 -0.0095
 1288SOL    HW2 5155   1.558   2.333   2.475  1.4102 -0.1102  0.1567
 1288SOL    HW3 5156   1.576   2.255   2.346  1.7111 -0.7209  0.5703
 1288SOL    MW4 5157   1.565   2.330   2.388  0.5178 -0.6139  0.0889
 1289SOL     OW 5158   1.337   2.470   2.254 -0.1386 -0.2533 -0.1363
 1289SOL    HW2 5159   1.411   2.434   2.303 -0.8852 -0.7045  0.6854
 1289SOL    HW3 5160   1.335   2.419   2.173 -0.0561 -0.8207  0.2093
 1289SOL    MW4 5161   1.346   2.458   2.250 -0.2264 -0.3879  0.0176
 1290SOL     OW 5162   1.350   2.726   2.352  0.1214 -0.0409 -0.4763
 1290SOL    HW2 5163   1.434   2.765   2.327 -0.8209  1.5023 -1.3067
 1290SOL    HW3 5164   1.348   2.643   2.305  2.1884 -1.1975  1.3839
 1290SOL    MW4 5165   1.361   2.720   2.342  0.2698  0.0103 -0.3405
 1291SOL     OW 5166   1.580   2.838   2.261 -0.0404  0.0993 -0.3605
 1291SOL    HW2 5167   1.579   2.932   2.276  0.9564  0.0176  0.2531
 1291SOL    HW3 5168   1.578   2.829   2.165  0.9512  0.7730 -0.4531
 1291SOL    MW4 5169   1.580   2.849   2.250  0.2218  0.1774 -0.2918
 1292SOL     OW 5170   1.580   3.108   2.336 -0.4105  0.1511 -0.4362
 1292SOL    HW2 5171   1.564   3.089   2.429  0.8205  1.0288 -0.0377
 1292SOL    HW3 5172   1.504   3.160   2.309  0.5939  2.3964  0.8745
 1292SOL    MW4 5173   1.568   3.113   2.345 -0.1155  0.5634 -0.2105
 1293SOL     OW 5174   1.369   3.266   2.262  0.0637 -0.4154  0.1664
 1293SOL    HW2 5175   1.314   3.198   2.300  0.5674 -0.5735  0.6156
 1293SOL    HW3 5176   1.362   3.252   2.167 -0.9759 -0.1834  0.2071
 1293SOL    MW4 5177   1.361   3.256   2.254 -0.0070 -0.4055  0.2310
 1294SOL     OW 5178   1.302   3.534   2.349 -0.4433  0.0142 -0.2683
 1294SOL    HW2 5179   1.290   3.524   2.444  1.8334  0.3281  0.0863
 1294SOL    HW3 5180   1.315   3.445   2.317 -0.2769  0.0005 -0.1591
 1294SOL    MW4 5181   1.302   3.521   2.357 -0.1210  0.0541 -0.2072
 1295SOL     OW 5182   1.555   3.602   2.268 -0.3258  0.6120  0.3246
 1295SOL    HW2 5183   1.567   3.683   2.318 -1.6531 -0.3998  2.3533
 1295SOL    HW3 5184   1.471   3.568   2.297  0.1377 -1.4224 -0.6334
 1295SOL    MW4 5185   1.546   3.608   2.278 -0.4398  0.2105  0.4659
 1296SOL     OW 5186   1.583   3.863   2.372  0.0113  0.0390  0.2374
 1296SOL    HW2 5187   1.578   3.867   2.467  0.0946  1.7482  0.1709
 1296SOL    HW3 5188   1.649   3.927   2.348  0.5981 -0.9688 -0.9353
 1296SOL    MW4 5189   1.591   3.872   2.381  0.0997  0.1316  0.0739
 1297SOL     OW 5190   1.340   3.964   2.274  0.0248  0.3758  0.1869
 1297SOL    HW2 5191   1.416   3.919   2.312 -0.0055  2.0239  2.3114
 1297SOL    HW3 5192   1.353   3.957   2.180  2.0399 -0.6888  0.5118
 1297SOL    MW4 5193   1.352   3.957   2.267  0.2866  0.4530  0.5097
 1298SOL     OW 5194   1.344   4.240   2.359  0.5994 -0.5022  0.6556
 1298SOL    HW2 5195   1.341   4.153   2.319 -0.5893 -0.7301  1.2349
 1298SOL    HW3 5196   1.268   4.285   2.324  1.0861  0.2372  0.5379
 1298SOL    MW4 5197   1.334   4.235   2.349  0.5068 -0.4349  0.7162
 1299SOL     OW 5198   1.553   4.375   2.252 -0.1780  0.1662 -0.7007
 1299SOL    HW2 5199   1.480   4.332   2.296  1.2500 -1.3542  0.2199
 1299SOL    HW3 5200   1.558   4.461   2.293 -0.8662 -0.0653 -0.1178
 1299SOL    MW4 5201   1.544   4.381   2.263 -0.0803 -0.0653 -0.5023
 1300SOL     OW 5202   2.025   0.003   2.368  0.6125 -0.0186  0.0792
 1300SOL    HW2 5203   2.097   0.056   2.333  1.4469  0.0013  1.7783
 1300SOL    HW3 5204   2.034  -0.082   2.324  1.6876 -0.0249  0.2945
 1300SOL    MW4 5205   2.036  -0.001   2.357  0.8643 -0.0168  0.3316
 1301SOL     OW 5206   1.777   0.084   2.241 -0.0747  0.1035  0.4749
 1301SOL    HW2 5207   1.781   0.177   2.264 -1.9320  0.1031  0.8960
 1301SOL    HW3 5208   1.856   0.046   2.281  0.2354  1.3388  1.0573
 1301SOL    MW4 5209   1.788   0.091   2.250 -0.2788  0.2664  0.6075
 1302SOL     OW 5210   1.773   0.349   2.324  0.0677 -0.1689  0.2202
 1302SOL    HW2 5211   1.767   0.349   2.420  1.6568  1.3819  0.3487
 1302SOL    HW3 5212   1.861   0.382   2.306 -1.0583  1.8588 -1.8134
 1302SOL    MW4 5213   1.784   0.353   2.334  0.1289  0.3033 -0.0310
 1303SOL     OW 5214   2.011   0.502   2.256  0.1712  0.4607 -0.2127
 1303SOL    HW2 5215   2.021   0.595   2.276 -0.8483  0.7658 -1.1204
 1303SOL    HW3 5216   2.013   0.497   2.160 -0.2810 -0.3992 -0.1846
 1303SOL    MW4 5217   2.013   0.513   2.246 -0.0229  0.3876 -0.3288
 1304SOL     OW 5218   2.025   0.757   2.357  0.0264 -0.0351  0.2355
 1304SOL    HW2 5219   2.100   0.804   2.321 -1.0903  1.4791 -0.1392
 1304SOL    HW3 5220   1.949   0.793   2.311 -0.9578 -1.3597  0.8014
 1304SOL    MW4 5221   2.025   0.768   2.346 -0.2508 -0.0101  0.2608
 1305SOL     OW 5222   1.813   0.898   2.252  0.0148 -0.0852 -0.5124
 1305SOL    HW2 5223   1.809   0.986   2.292  2.3128 -0.5348  0.7695
 1305SOL    HW3 5224   1.808   0.914   2.158  0.3172  1.4222 -0.2846
 1305SOL    MW4 5225   1.812   0.912   2.245  0.3580  0.0544 -0.3130
 1306SOL     OW 5226   1.797   1.158   2.354  0.2282 -0.0176  0.1642
 1306SOL    HW2 5227   1.874   1.190   2.306  0.2644 -0.1270  0.1497
 1306SOL    HW3 5228   1.726   1.215   2.325  0.2431 -0.1050 -0.0435
 1306SOL    MW4 5229   1.798   1.170   2.344  0.2350 -0.0435  0.1347
 1307SOL     OW 5230   2.018   1.286   2.235 -0.3308 -0.0729  0.5170
 1307SOL    HW2 5231   1.999   1.367   2.281 -0.4508 -0.6964  1.5874
 1307SOL    HW3 5232   2.014   1.309   2.142 -0.5459  1.0921  0.8125
 1307SOL    MW4 5233   2.015   1.300   2.229 -0.3750 -0.0014  0.6974
 1308SOL     OW 5234   1.971   1.539   2.333 -0.0692 -0.0851 -0.0004
 1308SOL    HW2 5235   1.984   1.549   2.427 -0.4400 -1.1714  0.1669
 1308SOL    HW3 5236   1.886   1.580   2.315 -0.2169 -0.3029  0.2082
 1308SOL    MW4 5237   1.962   1.546   2.343 -0.1376 -0.2571  0.0491
 1309SOL     OW 5238   1.727   1.668   2.242 -0.3105  0.2773  0.0365
 1309SOL    HW2 5239   1.764   1.751   2.272  0.1474  0.2355 -0.4095
 1309SOL    HW3 5240   1.736   1.671   2.147 -0.9015  0.0018 -0.0308
 1309SOL    MW4 5241   1.733   1.680   2.234 -0.3281  0.2353 -0.0312
 1310SOL     OW 5242   1.809   1.924   2.328 -0.4723  0.1383 -0.0690
 1310SOL    HW2 5243   1.804   1.942   2.422 -0.3391 -1.4220  0.2571
 1310SOL    HW3 5244   1.881   1.978   2.297  0.0779 -0.0165  0.9084
 1310SOL    MW4 5245   1.817   1.933   2.336 -0.3821 -0.0880  0.1028
 1311SOL     OW 5246   2.014   2.091   2.231 -0.0642  0.0759  0.2573
 1311SOL    HW2 5247   2.094   2.047   2.261 -1.4718 -2.8765 -0.0645
 1311SOL    HW3 5248   2.011   2.074   2.137 -1.7480 -1.0577  0.4856
 1311SOL    MW4 5249   2.024   2.083   2.222 -0.4723 -0.4630  0.2449
 1312SOL     OW 5250   2.003   2.355   2.321  0.2530 -0.1462 -0.1195
 1312SOL    HW2 5251   2.066   2.407   2.271  0.2602 -0.4675 -0.4433
 1312SOL    HW3 5252   2.019   2.265   2.293  0.7362 -0.4138  0.9742
 1312SOL    MW4 5253   2.014   2.350   2.311  0.3178 -0.2239 -0.0181
 1313SOL     OW 5254   1.766   2.466   2.206  0.2778 -0.2483  0.2967
 1313SOL    HW2 5255   1.844   2.415   2.227 -0.0376 -0.6455  0.5165
 1313SOL    HW3 5256   1.695   2.420   2.251 -0.1981 -0.3259 -0.5229
 1313SOL    MW4 5257   1.767   2.453   2.214  0.1734 -0.3109  0.2177
 1314SOL     OW 5258   1.832   2.719   2.320  0.6306  0.3236 -0.0879
 1314SOL    HW2 5259   1.805   2.641   2.271  0.5035  0.5183 -0.3266
 1314SOL    HW3 5260   1.756   2.776   2.319  0.1831 -0.2043  1.4353
 1314SOL    MW4 5261   1.819   2.716   2.314  0.5548  0.2797  0.0815
 1315SOL     OW 5262   2.070   2.861   2.259  0.3069 -0.3318  0.2432
 1315SOL    HW2 5263   2.129   2.817   2.320  1.0820  2.2751  1.4350
 1315SOL    HW3 5264   1.984   2.821   2.275  0.4625  0.4002  3.1670
 1315SOL    MW4 5265   2.066   2.850   2.269  0.4296  0.1087  0.7861
 1316SOL     OW 5266   2.020   3.105   2.365  0.4220 -0.4519  0.2492
 1316SOL    HW2 5267   2.092   3.159   2.334  1.2660 -1.1839  0.9057
 1316SOL    HW3 5268   2.034   3.020   2.325 -0.2563 -0.5210  0.1411
 1316SOL    MW4 5269   2.031   3.101   2.356  0.4439 -0.5577  0.3214
 1317SOL     OW 5270   1.807   3.231   2.245 -0.0360 -0.1506 -0.0967
 1317SOL    HW2 5271   1.874   3.176   2.286  0.5787  1.6433  1.4228
 1317SOL    HW3 5272   1.724   3.194   2.273  0.3750  0.1251  1.5172
 1317SOL    MW4 5273   1.805   3.219   2.254  0.0993  0.1225  0.3169
 1318SOL     OW 5274   1.796   3.492   2.345  0.0691 -0.1467  0.1162
 1318SOL    HW2 5275   1.792   3.399   2.321 -1.0201  0.1641 -0.9122
 1318SOL    HW3 5276   1.707   3.524   2.333 -0.1808  0.4198  3.0526
 1318SOL    MW4 5277   1.784   3.484   2.340 -0.1075 -0.0308  0.3681
 1319SOL     OW 5278   2.029   3.611   2.223  0.3254 -0.2311 -0.2727
 1319SOL    HW2 5279   1.952   3.575   2.266  1.4014 -1.2462  0.8821
 1319SOL    HW3 5280   2.009   3.606   2.129 -1.1050 -0.2382  0.0277
 1319SOL    MW4 5281   2.016   3.605   2.216  0.2787 -0.3660 -0.0806
 1320SOL     OW 5282   2.001   3.865   2.345 -0.1692 -0.0262 -0.1253
 1320SOL    HW2 5283   2.045   3.867   2.430  0.6344  1.3554 -0.5564
 1320SOL    HW3 5284   2.023   3.780   2.308 -0.4616 -0.6049  1.0048
 1320SOL    MW4 5285   2.010   3.854   2.352 -0.1016  0.0796 -0.0331
 1321SOL     OW 5286   1.792   4.021   2.278 -0.2041  0.0049  0.4825
 1321SOL    HW2 5287   1.862   3.958   2.295  0.0904  0.2757  0.2778
 1321SOL    HW3 5288   1.790   4.031   2.183 -0.0876  0.4848  0.5259
 1321SOL    MW4 5289   1.801   4.014   2.268 -0.1498  0.1040  0.4611
 1322SOL     OW 5290   1.797   4.290   2.331  0.3823 -0.0850  0.1349
 1322SOL    HW2 5291   1.800   4.195   2.317 -1.1484 -0.1155 -0.0387
 1322SOL    HW3 5292   1.707   4.315   2.310  1.4931  1.8423 -2.5519
 1322SOL    MW4 5293   1.786   4.281   2.327  0.3268  0.1655 -0.2425
 1323SOL     OW 5294   2.032   4.416   2.246 -0.1220 -1.0229  0.4986
 1323SOL    HW2 5295   1.951   4.380   2.281  0.0042 -0.0852  1.8112
 1323SOL    HW3 5296   2.017   4.424   2.152 -1.8680 -0.0577  0.8382
 1323SOL    MW4 5297   2.020   4.412   2.239 -0.3359 -0.7710  0.7164
 1324SOL     OW 5298   2.495   4.649   2.373 -0.1840  0.1684  0.1112
 1324SOL    HW2 5299   2.562   4.697   2.325  1.4690 -1.0923  1.0937
 1324SOL    HW3 5300   2.494   4.562   2.333 -0.7755 -0.0165  0.5122
 1324SOL    MW4 5301   2.504   4.644   2.362 -0.0441 -0.0224  0.2937
 1325SOL     OW 5302   2.272   0.120   2.253 -0.5687  0.1485  0.0127
 1325SOL    HW2 5303   2.287   0.209   2.284 -1.3295  0.0340  0.7140
 1325SOL    HW3 5304   2.343   0.069   2.292  0.2611  0.5464 -0.9191
 1325SOL    MW4 5305   2.284   0.125   2.262 -0.5593  0.1859 -0.0176
 1326SOL     OW 5306   2.261   0.383   2.340  0.5356 -0.4070 -0.2143
 1326SOL    HW2 5307   2.333   0.436   2.306  1.3690 -2.7710 -2.2681
 1326SOL    HW3 5308   2.182   0.423   2.303  1.1925 -0.8758 -2.2034
 1326SOL    MW4 5309   2.260   0.396   2.331  0.7322 -0.7807 -0.7477
 1327SOL     OW 5310   2.469   0.530   2.206 -0.2377  0.0034  0.2230
 1327SOL    HW2 5311   2.547   0.481   2.231  0.1131  0.8081  0.7562
 1327SOL    HW3 5312   2.464   0.522   2.111 -0.0288 -0.8280  0.2823
 1327SOL    MW4 5313   2.479   0.523   2.197 -0.1640 -0.0002  0.3011
 1328SOL     OW 5314   2.470   0.773   2.356  0.5360  0.3195 -0.4206
 1328SOL    HW2 5315   2.545   0.826   2.327  0.8052 -0.0577 -0.4034
 1328SOL    HW3 5316   2.480   0.690   2.310  2.5216 -1.3575  2.8942
 1328SOL    MW4 5317   2.481   0.769   2.346  0.8333  0.0486  0.0186
 1329SOL     OW 5318   2.243   0.866   2.231 -0.0181 -0.1589  0.5273
 1329SOL    HW2 5319   2.233   0.960   2.244 -1.1038 -0.2909  0.7009
 1329SOL    HW3 5320   2.314   0.841   2.289  0.6678  0.6484  0.0478
 1329SOL    MW4 5321   2.251   0.875   2.240 -0.0708 -0.0698  0.4869
 1330SOL     OW 5322   2.240   1.131   2.296  0.0756 -0.2048  0.4544
 1330SOL    HW2 5323   2.320   1.180   2.279 -0.9830  1.8188  1.1404
 1330SOL    HW3 5324   2.170   1.187   2.260 -1.1131 -1.4829  0.7362
 1330SOL    MW4 5325   2.241   1.145   2.289 -0.2210 -0.1065  0.5820
 1331SOL     OW 5326   2.456   1.294   2.248  0.4762 -0.4521  0.0605
 1331SOL    HW2 5327   2.537   1.251   2.277  1.1847 -0.7215 -2.2324
 1331SOL    HW3 5328   2.460   1.381   2.288  1.4351 -0.7832  0.7080
 1331SOL    MW4 5329   2.467   1.300   2.257  0.6962 -0.5313 -0.1569
 1332SOL     OW 5330   2.429   1.552   2.382  0.0621 -0.6594  0.6173
 1332SOL    HW2 5331   2.455   1.546   2.474 -1.4357 -0.5404  1.0648
 1332SOL    HW3 5332   2.504   1.594   2.339  0.4683  0.0065  1.9236
 1332SOL    MW4 5333   2.442   1.557   2.389 -0.0820 -0.5558  0.8485
 1333SOL     OW 5334   2.209   1.698   2.272 -0.4007 -0.2823  0.4841
 1333SOL    HW2 5335   2.271   1.637   2.312 -0.9442 -0.7531  0.6258
 1333SOL    HW3 5336   2.123   1.663   2.297 -0.7394 -0.3371 -0.7573
 1333SOL    MW4 5337   2.206   1.685   2.281 -0.5174 -0.3517  0.3388
 1334SOL     OW 5338   2.226   1.967   2.318 -0.0104 -0.0598  0.4459
 1334SOL    HW2 5339   2.301   2.002   2.270  1.6367  0.5392  3.2809
 1334SOL    HW3 5340   2.230   1.873   2.303 -1.5966  0.4125 -3.3162
 1334SOL    MW4 5341   2.237   1.959   2.310 -0.0024  0.0817  0.3238
 1335SOL     OW 5342   2.452   2.087   2.201 -0.9156 -0.0261 -0.3573
 1335SOL    HW2 5343   2.523   2.036   2.238  1.4032  2.9776 -0.4802
 1335SOL    HW3 5344   2.461   2.075   2.106 -1.1016 -0.2881 -0.3442
 1335SOL    MW4 5345   2.462   2.079   2.193 -0.6342  0.3357 -0.3717
 1336SOL     OW 5346   2.462   2.318   2.358 -0.1853  0.5685  0.1096
 1336SOL    HW2 5347   2.528   2.378   2.321 -1.3814  1.3855 -0.7346
 1336SOL    HW3 5348   2.459   2.245   2.296  0.3748  0.2239  0.4831
 1336SOL    MW4 5349   2.471   2.317   2.345 -0.2692  0.6306  0.0474
 1337SOL     OW 5350   2.233   2.460   2.209 -0.5959 -0.3569 -0.1994
 1337SOL    HW2 5351   2.248   2.533   2.270  0.6025  0.2840 -1.2488
 1337SOL    HW3 5352   2.294   2.392   2.237  1.2329  0.5940 -1.7259
 1337SOL    MW4 5353   2.243   2.461   2.221 -0.1962 -0.1469 -0.5393
 1338SOL     OW 5354   2.256   2.693   2.366 -0.3097 -0.2124 -0.1247
 1338SOL    HW2 5355   2.238   2.712   2.458 -2.3367  0.5322 -0.6496
 1338SOL    HW3 5356   2.314   2.764   2.337  1.3314 -1.1130  0.8677
 1338SOL    MW4 5357   2.262   2.705   2.374 -0.3607 -0.2327 -0.0632
 1339SOL     OW 5358   2.445   2.870   2.266  0.1772  0.3449  0.3300
 1339SOL    HW2 5359   2.520   2.817   2.293  1.7981  1.5754 -1.5670
 1339SOL    HW3 5360   2.458   2.884   2.172 -2.6160  0.3278 -0.1053
 1339SOL    MW4 5361   2.456   2.865   2.257  0.0226  0.5050  0.0224
 1340SOL     OW 5362   2.470   3.136   2.362 -0.0669 -0.1126  0.4114
 1340SOL    HW2 5363   2.547   3.182   2.329 -1.0460  1.3494  0.0903
 1340SOL    HW3 5364   2.478   3.047   2.328  0.2330  0.6909 -1.6504
 1340SOL    MW4 5365   2.481   3.130   2.353 -0.1564  0.1862  0.0968
 1341SOL     OW 5366   2.235   3.252   2.258  0.6259  0.2674  0.1421
 1341SOL    HW2 5367   2.250   3.346   2.264  1.5323  0.1874 -0.7048
 1341SOL    HW3 5368   2.316   3.213   2.290  0.6860 -0.2199 -0.6092
 1341SOL    MW4 5369   2.248   3.259   2.263  0.7534  0.1926 -0.0687
 1342SOL     OW 5370   2.264   3.523   2.314  0.1611 -0.2207 -0.1232
 1342SOL    HW2 5371   2.251   3.499   2.406  0.6653  1.0584  0.2877
 1342SOL    HW3 5372   2.178   3.555   2.285 -0.7264 -3.1475 -0.8958
 1342SOL    MW4 5373   2.251   3.524   2.322  0.1106 -0.4382 -0.1707
 1343SOL     OW 5374   2.505   3.647   2.233 -0.5336 -0.0396  0.1864
 1343SOL    HW2 5375   2.489   3.736   2.266 -0.5996  0.3465 -0.8402
 1343SOL    HW3 5376   2.429   3.597   2.261 -0.2788  0.1139  1.1650
 1343SOL    MW4 5377   2.493   3.652   2.241 -0.5088  0.0315  0.1800
 1344SOL     OW 5378   2.459   3.904   2.342  0.1853  0.3922  0.2392
 1344SOL    HW2 5379   2.461   3.903   2.437  0.8125 -1.8438  0.2391
 1344SOL    HW3 5380   2.378   3.951   2.319 -0.6898 -0.2889  1.8831
 1344SOL    MW4 5381   2.448   3.910   2.351  0.1526  0.0074  0.4559
 1345SOL     OW 5382   2.213   3.997   2.241 -0.7147  0.4340 -0.4977
 1345SOL    HW2 5383   2.204   4.090   2.262 -1.6282  0.1778  0.2868
 1345SOL    HW3 5384   2.144   3.954   2.292 -0.1882 -0.6927 -0.7160
 1345SOL    MW4 5385   2.203   4.004   2.251 -0.7660  0.2518 -0.4230
 1346SOL     OW 5386   2.235   4.271   2.332  0.0487  0.0923  0.0372
 1346SOL    HW2 5387   2.245   4.280   2.427  1.9022  0.3918 -0.1598
 1346SOL    HW3 5388   2.173   4.340   2.308 -1.5777 -0.9510  1.2170
 1346SOL    MW4 5389   2.228   4.282   2.341  0.0787 -0.0062  0.1669
 1347SOL     OW 5390   2.506   4.392   2.251 -0.1467 -0.0120 -0.0633
 1347SOL    HW2 5391   2.578   4.348   2.297 -0.6570  0.5447  1.3027
 1347SOL    HW3 5392   2.428   4.345   2.280 -0.4126 -0.1624 -1.0042
 1347SOL    MW4 5393   2.505   4.380   2.261 -0.2491  0.0420 -0.0074
 1348SOL     OW 5394   2.928   0.006   2.323  0.4640  0.4430 -0.0217
 1348SOL    HW2 5395   3.000   0.054   2.282 -0.7118  0.5291 -2.0893
 1348SOL    HW3 5396   2.933  -0.081   2.284  1.8039 -0.7433  2.7462
 1348SOL    MW4 5397   2.938   0.001   2.312  0.4859  0.2975  0.0706
 1349SOL     OW 5398   2.688   0.113   2.228  0.1791 -0.7600 -0.4284
 1349SOL    HW2 5399   2.679   0.206   2.246  1.7639 -0.1006 -2.7531
 1349SOL    HW3 5400   2.770   0.088   2.270 -0.0236 -0.9959 -0.1743
 1349SOL    MW4 5401   2.698   0.122   2.236  0.3614 -0.7042 -0.7017
 1350SOL     OW 5402   2.674   0.376   2.283  0.1130 -0.1944  0.3208
 1350SOL    HW2 5403   2.655   0.393   2.375  0.6149  2.0323  0.0635
 1350SOL    HW3 5404   2.765   0.405   2.272  0.4085 -1.4312 -0.6460
 1350SOL    MW4 5405   2.684   0.382   2.294  0.2179 -0.0637  0.1595
 1351SOL     OW 5406   2.926   0.502   2.213 -0.2922 -0.1244  0.3115
 1351SOL    HW2 5407   2.932   0.590   2.251 -0.6124 -0.0211  0.1242
 1351SOL    HW3 5408   2.930   0.516   2.119  0.8443 -0.4160  0.3171
 1351SOL    MW4 5409   2.927   0.516   2.206 -0.1848 -0.1493  0.2873
 1352SOL     OW 5410   2.928   0.747   2.359 -0.2247 -0.0924 -0.0975
 1352SOL    HW2 5411   2.930   0.756   2.454 -1.0892 -0.2669 -0.0572
 1352SOL    HW3 5412   2.846   0.789   2.333  0.0317 -0.0116 -0.7678
 1352SOL    MW4 5413   2.917   0.754   2.368 -0.3047 -0.1047 -0.1805
 1353SOL     OW 5414   2.710   0.881   2.262  0.0892 -0.1440 -0.1942
 1353SOL    HW2 5415   2.700   0.974   2.286 -1.5506 -0.2527 -0.3914
 1353SOL    HW3 5416   2.724   0.883   2.167 -0.7403 -0.1171 -0.3287
 1353SOL    MW4 5417   2.710   0.894   2.252 -0.2365 -0.1547 -0.2379
 1354SOL     OW 5418   2.684   1.149   2.327  0.2984  0.3064 -0.0949
 1354SOL    HW2 5419   2.684   1.148   2.423 -1.3277 -1.9834 -0.0769
 1354SOL    HW3 5420   2.764   1.195   2.303  0.0980  2.0146  2.3596
 1354SOL    MW4 5421   2.695   1.155   2.336  0.0575  0.2295  0.2313
 1355SOL     OW 5422   2.911   1.274   2.222  0.2948 -0.5749  0.0584
 1355SOL    HW2 5423   2.989   1.234   2.260  1.1565  0.7336 -0.3004
 1355SOL    HW3 5424   2.928   1.276   2.128 -0.6209 -1.2102 -0.1353
 1355SOL    MW4 5425   2.923   1.269   2.215  0.2878 -0.4861 -0.0145
 1356SOL     OW 5426   2.883   1.530   2.336 -0.0568 -0.0198  0.2680
 1356SOL    HW2 5427   2.897   1.516   2.429 -1.1702 -2.1693  0.1442
 1356SOL    HW3 5428   2.877   1.442   2.299 -1.1738  0.7998 -1.5822
 1356SOL    MW4 5429   2.884   1.517   2.343 -0.3510 -0.1953  0.0074
 1357SOL     OW 5430   2.642   1.652   2.235  0.4361  0.1217  0.7521
 1357SOL    HW2 5431   2.716   1.593   2.243  0.2024 -0.1841  0.6734
 1357SOL    HW3 5432   2.636   1.671   2.142 -0.1133 -0.5401  0.6466
 1357SOL    MW4 5433   2.651   1.647   2.224  0.3328 -0.0060  0.7279
 1358SOL     OW 5434   2.659   1.925   2.308  0.0377  0.3025  0.6755
 1358SOL    HW2 5435   2.681   1.932   2.401 -1.2222 -1.2127  1.1084
 1358SOL    HW3 5436   2.652   1.831   2.292 -0.8169  0.5845 -0.6947
 1358SOL    MW4 5437   2.661   1.914   2.318 -0.2410  0.1400  0.5517
 1359SOL     OW 5438   2.881   2.078   2.233 -0.1266 -0.0669 -0.2309
 1359SOL    HW2 5439   2.963   2.037   2.262 -0.5390  0.0835  1.1456
 1359SOL    HW3 5440   2.812   2.022   2.267 -0.6107 -0.0785 -1.2191
 1359SOL    MW4 5441   2.883   2.065   2.241 -0.2451 -0.0486 -0.1795
 1360SOL     OW 5442   2.900   2.340   2.335  0.4720 -0.4286 -0.4351
 1360SOL    HW2 5443   2.907   2.309   2.425 -0.7020 -1.7075 -0.7744
 1360SOL    HW3 5444   2.896   2.260   2.283  2.5027  0.2772 -1.7549
 1360SOL    MW4 5445   2.900   2.325   2.340  0.5846 -0.5045 -0.6540
 1361SOL     OW 5446   2.654   2.481   2.259  0.3892 -0.5510 -0.5395
 1361SOL    HW2 5447   2.736   2.438   2.284  2.2435  1.9292 -2.1091
 1361SOL    HW3 5448   2.651   2.473   2.164 -1.6979 -1.4115 -0.4294
 1361SOL    MW4 5449   2.664   2.474   2.250  0.3583 -0.3374 -0.7319
 1362SOL     OW 5450   2.679   2.742   2.355 -0.2277  0.1943  0.1654
 1362SOL    HW2 5451   2.750   2.788   2.310  0.0406 -1.7382 -1.4264
 1362SOL    HW3 5452   2.686   2.651   2.325 -1.9348 -0.5119  1.7915
 1362SOL    MW4 5453   2.689   2.736   2.345 -0.4177 -0.1535  0.1700
 1363SOL     OW 5454   2.901   2.857   2.252  0.1735  0.5674  0.0256
 1363SOL    HW2 5455   2.907   2.943   2.294 -0.2418  0.9040 -0.6052
 1363SOL    HW3 5456   2.910   2.875   2.159  1.3036 -0.2066 -0.0281
 1363SOL    MW4 5457   2.903   2.871   2.246  0.2675  0.5097 -0.0648
 1364SOL     OW 5458   2.936   3.108   2.363  0.0718  0.3626 -0.1601
 1364SOL    HW2 5459   2.996   3.175   2.331 -0.7634  1.3828  0.3860
 1364SOL    HW3 5460   2.852   3.128   2.320 -0.5708  0.6088  1.1643
 1364SOL    MW4 5461   2.933   3.119   2.353 -0.1233  0.5300  0.0868
 1365SOL     OW 5462   2.712   3.232   2.270 -0.1500 -0.1992  0.1152
 1365SOL    HW2 5463   2.720   3.324   2.296 -0.2632  0.0795 -0.8044
 1365SOL    HW3 5464   2.703   3.235   2.174  3.4375 -1.3244 -0.3609
 1365SOL    MW4 5465   2.712   3.245   2.261  0.3083 -0.3109 -0.0691
 1366SOL     OW 5466   2.715   3.503   2.346  0.1340 -0.2788 -0.2777
 1366SOL    HW2 5467   2.784   3.547   2.296 -0.1009 -0.0331 -0.3931
 1366SOL    HW3 5468   2.634   3.547   2.317 -0.0565 -0.4985 -0.0743
 1366SOL    MW4 5469   2.713   3.515   2.336  0.0782 -0.2754 -0.2661
 1367SOL     OW 5470   2.917   3.652   2.214 -0.3621 -0.4351 -0.3666
 1367SOL    HW2 5471   2.981   3.602   2.265 -0.5973  0.9118  1.2811
 1367SOL    HW3 5472   2.897   3.727   2.268 -1.2117  0.6440 -2.1378
 1367SOL    MW4 5473   2.923   3.655   2.228 -0.5052 -0.1152 -0.3829
 1368SOL     OW 5474   2.904   3.923   2.328 -0.1735  0.0617 -0.5159
 1368SOL    HW2 5475   2.907   3.907   2.422 -2.0896  1.4547 -0.1682
 1368SOL    HW3 5476   2.815   3.955   2.313  0.4246  0.7904 -2.6432
 1368SOL    MW4 5477   2.892   3.925   2.339 -0.3471  0.3417 -0.7505
 1369SOL     OW 5478   2.671   4.074   2.259 -0.4818  1.0506  0.3063
 1369SOL    HW2 5479   2.589   4.039   2.294 -0.2818  0.5589  0.2936
 1369SOL    HW3 5480   2.669   4.051   2.166 -1.2148  2.7439 -0.0962
 1369SOL    MW4 5481   2.660   4.066   2.251 -0.5522  1.2088  0.2515
 1370SOL     OW 5482   2.742   4.318   2.390 -0.4856  0.6470  0.0792
 1370SOL    HW2 5483   2.704   4.302   2.476 -1.6220  1.2540 -0.3078
 1370SOL    HW3 5484   2.733   4.235   2.344 -0.7801  0.6131  0.1984
 1370SOL    MW4 5485   2.736   4.305   2.396 -0.6745  0.7229  0.0439
 1371SOL     OW 5486   2.948   4.405   2.226 -0.0280  0.4048 -0.0080
 1371SOL    HW2 5487   3.026   4.361   2.259 -0.1312  1.5893  1.8971
 1371SOL    HW3 5488   2.878   4.377   2.285 -0.5596  1.1862 -0.2552
 1371SOL    MW4 5489   2.949   4.396   2.238 -0.1116  0.6642  0.2108
 1372SOL     OW 5490   3.360   4.637   2.309 -0.0790  0.3079 -0.3939
 1372SOL    HW2 5491   3.361   4.672   2.398 -0.5179 -1.8514  0.4644
 1372SOL    HW3 5492   3.444   4.665   2.272 -0.4808  2.3987  0.2134
 1372SOL    MW4 5493   3.372   4.646   2.316 -0.1898  0.2988 -0.2007
 1373SOL     OW 5494   3.168   0.113   2.200  0.3402 -0.3250  0.2369
 1373SOL    HW2 5495   3.173   0.202   2.236  0.9339  0.0055 -0.6622
 1373SOL    HW3 5496   3.243   0.067   2.239 -0.0378 -0.4829  0.8004
 1373SOL    MW4 5497   3.178   0.119   2.210  0.3688 -0.3023  0.1929
 1374SOL     OW 5498   3.133   0.380   2.343 -0.3654 -0.4129  0.4466
 1374SOL    HW2 5499   3.211   0.432   2.323 -0.3906 -0.7495 -0.5434
 1374SOL    HW3 5500   3.064   0.419   2.290 -0.5848 -0.9021  0.3729
 1374SOL    MW4 5501   3.134   0.392   2.333 -0.3977 -0.5218  0.3061
 1375SOL     OW 5502   3.351   0.530   2.241  0.1115  0.3558 -0.5142
 1375SOL    HW2 5503   3.426   0.483   2.276  0.4114  0.7910 -0.5773
 1375SOL    HW3 5504   3.358   0.521   2.146 -0.3483 -0.2684 -0.5001
 1375SOL    MW4 5505   3.362   0.522   2.233  0.0904  0.3308 -0.5205
 1376SOL     OW 5506   3.361   0.762   2.379  0.1291  0.3278 -0.2666
 1376SOL    HW2 5507   3.448   0.787   2.348  0.7368 -1.7625 -0.3830
 1376SOL    HW3 5508   3.348   0.674   2.342 -1.1640 -0.2122  1.4177
 1376SOL    MW4 5509   3.371   0.753   2.370  0.0386 -0.0193 -0.0596
 1377SOL     OW 5510   3.158   0.876   2.242  0.1190  0.5878 -0.2168
 1377SOL    HW2 5511   3.237   0.845   2.287  0.2034 -0.3442 -0.9828
 1377SOL    HW3 5512   3.087   0.823   2.278  0.3032 -0.7450 -1.7254
 1377SOL    MW4 5513   3.159   0.865   2.252  0.1545  0.2890 -0.5169
 1378SOL     OW 5514   3.139   1.145   2.329  0.2087 -0.0066  0.3330
 1378SOL    HW2 5515   3.217   1.187   2.293  1.1456 -0.6422  1.5868
 1378SOL    HW3 5516   3.136   1.059   2.286 -0.1723  0.2766 -0.2058
 1378SOL    MW4 5517   3.149   1.139   2.318  0.2823 -0.0530  0.4275
 1379SOL     OW 5518   3.375   1.273   2.238  0.1606 -0.0863  0.0555
 1379SOL    HW2 5519   3.452   1.230   2.276 -0.7400 -0.7984  1.1318
 1379SOL    HW3 5520   3.372   1.359   2.281  0.2167 -0.1564  0.2007
 1379SOL    MW4 5521   3.385   1.279   2.249  0.0491 -0.1894  0.2170
 1380SOL     OW 5522   3.352   1.523   2.325  0.0275 -0.0887  0.2589
 1380SOL    HW2 5523   3.376   1.536   2.417  0.3262  0.2917  0.1259
 1380SOL    HW3 5524   3.279   1.583   2.311  0.9023  0.9002 -0.1400
 1380SOL    MW4 5525   3.345   1.533   2.336  0.1824  0.0920  0.1888
 1381SOL     OW 5526   3.132   1.678   2.275  0.4333  0.1613  0.1620
 1381SOL    HW2 5527   3.125   1.772   2.294 -0.5616  0.2276 -0.5248
 1381SOL    HW3 5528   3.049   1.641   2.307  1.1761 -0.6318  1.2357
 1381SOL    MW4 5529   3.120   1.685   2.282  0.4003  0.0653  0.2129
 1382SOL     OW 5530   3.117   1.968   2.342 -0.5040 -0.0214  0.0339
 1382SOL    HW2 5531   3.120   1.955   2.437 -1.6144 -0.2482  0.0463
 1382SOL    HW3 5532   3.207   1.992   2.318 -0.4582  1.1620  1.3010
 1382SOL    MW4 5533   3.129   1.970   2.351 -0.6447  0.1048  0.2027
 1383SOL     OW 5534   3.363   2.050   2.243 -0.5301 -0.8017 -0.0350
 1383SOL    HW2 5535   3.436   2.006   2.286  0.3292 -1.3894 -2.0233
 1383SOL    HW3 5536   3.385   2.049   2.150 -1.7041  1.5927 -0.4028
 1383SOL    MW4 5537   3.375   2.044   2.236 -0.5717 -0.5634 -0.3459
 1384SOL     OW 5538   3.364   2.313   2.352  0.4001  0.1116  0.1411
 1384SOL    HW2 5539   3.296   2.353   2.299  1.2961  1.0805 -0.2890
 1384SOL    HW3 5540   3.377   2.226   2.312  0.3272  0.4258 -0.5742
 1384SOL    MW4 5541   3.357   2.307   2.340  0.5088  0.2813 -0.0100
 1385SOL     OW 5542   3.140   2.448   2.237 -0.2851  0.5165  0.0472
 1385SOL    HW2 5543   3.142   2.537   2.272 -0.7645  1.3037 -1.8615
 1385SOL    HW3 5544   3.056   2.412   2.266 -0.7358  1.1988 -0.4186
 1385SOL    MW4 5545   3.129   2.455   2.245 -0.4079  0.7105 -0.2661
 1386SOL     OW 5546   3.127   2.717   2.333  0.1868  0.0247 -0.0902
 1386SOL    HW2 5547   3.146   2.703   2.426  1.1099  3.0561  0.2106
 1386SOL    HW3 5548   3.040   2.755   2.332  0.0796 -0.2249 -0.5076
 1386SOL    MW4 5549   3.118   2.720   2.345  0.2947  0.3917 -0.1056
 1387SOL     OW 5550   3.358   2.872   2.273 -0.0866  0.3724 -0.4064
 1387SOL    HW2 5551   3.361   2.955   2.320  1.2398  0.6329 -0.9526
 1387SOL    HW3 5552   3.272   2.835   2.296  0.4506  0.5874  2.0358
 1387SOL    MW4 5553   3.347   2.878   2.282  0.1593  0.4351 -0.1564
 1388SOL     OW 5554   3.393   3.110   2.387 -0.2413 -0.6534 -0.1615
 1388SOL    HW2 5555   3.467   3.161   2.354 -0.5119  1.4626  2.2891
 1388SOL    HW3 5556   3.316   3.158   2.359 -0.5820 -1.1840 -0.1365
 1388SOL    MW4 5557   3.393   3.123   2.379 -0.3221 -0.4442  0.1650
 1389SOL     OW 5558   3.159   3.263   2.292 -0.4133 -0.3691  0.1267
 1389SOL    HW2 5559   3.158   3.358   2.308 -1.8233 -0.5522  1.3000
 1389SOL    HW3 5560   3.152   3.255   2.197 -0.7629  0.7013  0.0483
 1389SOL    MW4 5561   3.158   3.275   2.282 -0.6454 -0.2522  0.2711
 1390SOL     OW 5562   3.112   3.538   2.357  0.2598 -0.1378  0.0439
 1390SOL    HW2 5563   3.121   3.533   2.453 -0.3852  1.2281  0.1856
 1390SOL    HW3 5564   3.194   3.578   2.328 -0.0141  0.5102  0.1448
 1390SOL    MW4 5565   3.124   3.543   2.366  0.1385  0.1280  0.0761
 1391SOL     OW 5566   3.335   3.668   2.255 -0.4311  0.1398 -0.0045
 1391SOL    HW2 5567   3.415   3.624   2.283  0.6937  1.5469 -0.9288
 1391SOL    HW3 5568   3.330   3.651   2.161 -0.4854  1.1547 -0.1968
 1391SOL    MW4 5569   3.345   3.660   2.246 -0.2899  0.4594 -0.1519
 1392SOL     OW 5570   3.358   3.905   2.394 -0.3056  0.1112  0.4534
 1392SOL    HW2 5571   3.416   3.954   2.336 -0.5143  0.8374  0.8570
 1392SOL    HW3 5572   3.350   3.819   2.353 -0.0504  0.4583 -0.3270
 1392SOL    MW4 5573   3.365   3.900   2.381 -0.2997  0.2530  0.4039
 1393SOL     OW 5574   3.153   3.985   2.237  0.2823 -0.7140  0.2881
 1393SOL    HW2 5575   3.217   3.953   2.301  0.6646  0.5572  0.5496
 1393SOL    HW3 5576   3.069   3.952   2.268  0.5906 -0.9147  0.9164
 1393SOL    MW4 5577   3.151   3.976   2.250  0.3736 -0.5729  0.4055
 1394SOL     OW 5578   3.133   4.240   2.327 -0.3383  0.2615 -0.4730
 1394SOL    HW2 5579   3.215   4.276   2.292 -0.7251 -0.5551 -2.2599
 1394SOL    HW3 5580   3.134   4.148   2.302 -2.2373  0.4494 -1.3268
 1394SOL    MW4 5581   3.144   4.233   2.319 -0.6399  0.1788 -0.8214
 1395SOL     OW 5582   3.366   4.375   2.256  0.1497  0.2898 -0.4202
 1395SOL    HW2 5583   3.378   4.465   2.285  0.8288  0.1069 -0.1298
 1395SOL    HW3 5584   3.369   4.379   2.160  1.4290  0.4019 -0.3780
 1395SOL    MW4 5585   3.368   4.387   2.247  0.4079  0.2809 -0.3762
 1396SOL     OW 5586   3.786   4.644   2.384  0.3435  0.0389 -0.0885
 1396SOL    HW2 5587   3.814   4.649   2.476 -0.2424 -1.1819  0.1693
 1396SOL    HW3 5588   3.857   4.686   2.335  0.4102  1.1962  0.9583
 1396SOL    MW4 5589   3.799   4.650   2.390  0.2751  0.0305  0.0839
 1397SOL     OW 5590   3.581   0.142   2.268 -1.2492 -0.3289  0.2227
 1397SOL    HW2 5591   3.576   0.221   2.323 -2.0176  0.1393 -0.5122
 1397SOL    HW3 5592   3.650   0.090   2.309  0.5242  1.5150 -0.3281
 1397SOL    MW4 5593   3.589   0.146   2.281 -1.1168 -0.0239  0.0529
 1398SOL     OW 5594   3.552   0.401   2.379 -0.6048 -0.0893  0.1875
 1398SOL    HW2 5595   3.556   0.388   2.474 -0.0772 -1.1235  0.0216
 1398SOL    HW3 5596   3.628   0.456   2.359 -1.0489  0.6275  0.4369
 1398SOL    MW4 5597   3.563   0.407   2.389 -0.5939 -0.1312  0.1986
 1399SOL     OW 5598   3.782   0.518   2.294 -0.3878  0.2191 -0.0858
 1399SOL    HW2 5599   3.793   0.610   2.317  0.2294 -0.2718  1.6449
 1399SOL    HW3 5600   3.799   0.515   2.199 -0.4281  1.8682 -0.1616
 1399SOL    MW4 5601   3.785   0.530   2.284 -0.3116  0.3720  0.1326
 1400SOL     OW 5602   3.825   0.783   2.358  0.0340 -0.6710  0.1391
 1400SOL    HW2 5603   3.814   0.801   2.451  0.2162 -1.7883  0.3836
 1400SOL    HW3 5604   3.913   0.815   2.337  0.8491 -2.3449  0.8528
 1400SOL    MW4 5605   3.835   0.789   2.367  0.1655 -1.0393  0.2654
 1401SOL     OW 5606   3.586   0.870   2.247  0.2725 -0.4643  0.5063
 1401SOL    HW2 5607   3.675   0.844   2.274  1.1987  0.0469 -1.8730
 1401SOL    HW3 5608   3.595   0.890   2.154 -1.7008  2.6447  0.9334
 1401SOL    MW4 5609   3.599   0.869   2.238  0.1345  0.0133  0.2487
 1402SOL     OW 5610   3.602   1.135   2.335  0.3184  0.1580 -0.4139
 1402SOL    HW2 5611   3.602   1.143   2.431  0.0883 -0.5680 -0.3519
 1402SOL    HW3 5612   3.602   1.040   2.319 -1.4107  0.2602 -1.1280
 1402SOL    MW4 5613   3.602   1.123   2.346  0.0598  0.0757 -0.4997
 1403SOL     OW 5614   3.830   1.255   2.248  0.0254 -0.0897  0.0398
 1403SOL    HW2 5615   3.815   1.344   2.279 -0.6703 -0.6345  1.3107
 1403SOL    HW3 5616   3.761   1.203   2.289  1.7516 -1.6031  1.0865
 1403SOL    MW4 5617   3.819   1.260   2.257  0.1612 -0.3612  0.3459
 1404SOL     OW 5618   3.796   1.507   2.347  0.0182 -0.1008 -0.2753
 1404SOL    HW2 5619   3.809   1.537   2.437  2.3613  0.3007 -0.7257
 1404SOL    HW3 5620   3.729   1.566   2.313 -1.2061 -0.5245  1.3141
 1404SOL    MW4 5621   3.789   1.519   2.355  0.1657 -0.1037 -0.1252
 1405SOL     OW 5622   3.542   1.697   2.226  0.1216  0.0403 -0.0409
 1405SOL    HW2 5623   3.477   1.630   2.247 -0.1189  0.5400  0.8407
 1405SOL    HW3 5624   3.554   1.690   2.131 -2.0127  0.6513 -0.3822
 1405SOL    MW4 5625   3.535   1.687   2.216 -0.1917  0.1869  0.0303
 1406SOL     OW 5626   3.586   1.936   2.361  0.1062 -0.2432  0.3004
 1406SOL    HW2 5627   3.649   1.978   2.303 -0.5445 -0.1825 -0.3768
 1406SOL    HW3 5628   3.570   1.851   2.322 -0.3483 -0.1963  0.3723
 1406SOL    MW4 5629   3.592   1.931   2.348 -0.0396 -0.2290  0.2205
 1407SOL     OW 5630   3.788   2.068   2.229  0.0165 -0.1332 -0.2496
 1407SOL    HW2 5631   3.871   2.027   2.254  0.6411  0.7991 -0.8043
 1407SOL    HW3 5632   3.790   2.068   2.133  0.5256  2.2282 -0.2539
 1407SOL    MW4 5633   3.799   2.062   2.219  0.1659  0.3016 -0.3235
 1408SOL     OW 5634   3.793   2.328   2.359 -0.4587  0.0163  0.2898
 1408SOL    HW2 5635   3.715   2.380   2.342 -0.1727 -0.0098 -1.1707
 1408SOL    HW3 5636   3.783   2.250   2.304  0.4657 -0.0961  0.2723
 1408SOL    MW4 5637   3.782   2.324   2.349 -0.2990 -0.0019  0.0951
 1409SOL     OW 5638   3.557   2.494   2.280 -1.0950 -0.3083  0.2576
 1409SOL    HW2 5639   3.497   2.422   2.298 -0.2952 -0.8022  0.9877
 1409SOL    HW3 5640   3.567   2.494   2.185 -1.4678 -0.8592  0.2169
 1409SOL    MW4 5641   3.550   2.484   2.270 -1.0386 -0.4461  0.3486
 1410SOL     OW 5642   3.590   2.763   2.357 -0.1934 -0.8825 -0.4328
 1410SOL    HW2 5643   3.569   2.674   2.332  0.3036 -0.7855 -1.2260
 1410SOL    HW3 5644   3.518   2.816   2.324  0.6583 -0.7023 -2.0763
 1410SOL    MW4 5645   3.578   2.758   2.349 -0.0155 -0.8459 -0.7544
 1411SOL     OW 5646   3.866   2.890   2.287 -0.0570  0.0577  0.5425
 1411SOL    HW2 5647   3.849   2.974   2.329 -0.1227  0.1133  0.4035
 1411SOL    HW3 5648   3.793   2.834   2.316  1.0302 -0.5363  2.2323
 1411SOL    MW4 5649   3.854   2.894   2.297  0.0777 -0.0134  0.7472
 1412SOL     OW 5650   3.797   3.148   2.388  0.4943 -0.0679  0.4289
 1412SOL    HW2 5651   3.809   3.126   2.481  0.8537 -1.0868  0.1445
 1412SOL    HW3 5652   3.884   3.174   2.359  0.3187  0.5609  0.4442
 1412SOL    MW4 5653   3.810   3.149   2.397  0.5183 -0.1194  0.3934
 1413SOL     OW 5654   3.579   3.278   2.259 -0.1485  0.0583 -0.2669
 1413SOL    HW2 5655   3.572   3.365   2.298 -0.3968 -0.1521  0.1613
 1413SOL    HW3 5656   3.666   3.247   2.285  0.9493  1.1590 -2.4653
 1413SOL    MW4 5657   3.590   3.286   2.267 -0.0367  0.1757 -0.5004
 1414SOL     OW 5658   3.596   3.544   2.342 -0.2077  0.1489  0.0028
 1414SOL    HW2 5659   3.606   3.569   2.434  0.0549 -0.3141  0.0989
 1414SOL    HW3 5660   3.685   3.549   2.306 -0.3863  0.8454 -0.3602
 1414SOL    MW4 5661   3.609   3.548   2.350 -0.1967  0.1798 -0.0324
 1415SOL     OW 5662   3.853   3.596   2.265  0.3089 -0.1863  0.2466
 1415SOL    HW2 5663   3.846   3.689   2.289  0.4945 -0.2290  0.4735
 1415SOL    HW3 5664   3.854   3.596   2.170 -0.8939 -0.0417  0.2328
 1415SOL    MW4 5665   3.852   3.609   2.256  0.1745 -0.1729  0.2749
 1416SOL     OW 5666   3.758   3.864   2.358 -0.2259 -0.1487 -0.1924
 1416SOL    HW2 5667   3.763   3.865   2.454 -1.2504  1.3240 -0.1456
 1416SOL    HW3 5668   3.830   3.920   2.329  0.1945 -0.7360 -0.3012
 1416SOL    MW4 5669   3.768   3.871   2.367 -0.3057 -0.0319 -0.2007
 1417SOL     OW 5670   3.560   4.023   2.243 -0.1023  0.6017 -0.5586
 1417SOL    HW2 5671   3.560   4.092   2.309  2.0885 -0.1592  0.2932
 1417SOL    HW3 5672   3.631   3.964   2.269 -1.0129 -1.2330 -2.0347
 1417SOL    MW4 5673   3.569   4.024   2.255  0.0668  0.2589 -0.6411
 1418SOL     OW 5674   3.583   4.262   2.374  0.4272 -0.0389  0.7801
 1418SOL    HW2 5675   3.653   4.309   2.330  0.0596  0.9732  1.2571
 1418SOL    HW3 5676   3.502   4.301   2.340  0.1412  1.0627  2.6284
 1418SOL    MW4 5677   3.581   4.273   2.364  0.3412  0.2398  1.0870
 1419SOL     OW 5678   3.806   4.374   2.262  0.4732 -0.0836 -0.1029
 1419SOL    HW2 5679   3.875   4.323   2.304  1.6255  0.4684 -1.2932
 1419SOL    HW3 5680   3.806   4.458   2.308 -0.0689 -0.4075  0.5167
 1419SOL    MW4 5681   3.815   4.378   2.274  0.5536 -0.0539 -0.1781
 1420SOL     OW 5682   4.265   4.652   2.399  0.0825  0.4659 -0.3931
 1420SOL    HW2 5683   4.291   4.653   2.491  0.9940  0.0858 -0.6400
 1420SOL    HW3 5684   4.323   4.715   2.356 -0.4483  0.7654 -0.6855
 1420SOL    MW4 5685   4.276   4.661   2.405  0.1330  0.4554 -0.4644
 1421SOL     OW 5686   4.022   0.102   2.279  0.7911 -0.4153 -0.5313
 1421SOL    HW2 5687   3.994   0.184   2.319  2.0678 -0.1909 -0.0619
 1421SOL    HW3 5688   4.094   0.072   2.335  0.8119 -1.4812 -1.1182
 1421SOL    MW4 5689   4.028   0.109   2.291  0.9623 -0.5263 -0.5467
 1422SOL     OW 5690   4.006   0.356   2.369  0.4783 -0.3166  0.1276
 1422SOL    HW2 5691   4.080   0.401   2.327  0.4560  0.3638  0.8077
 1422SOL    HW3 5692   3.931   0.411   2.349  0.6081  0.4922  1.8020
 1422SOL    MW4 5693   4.006   0.369   2.361  0.4921 -0.1201  0.4380
 1423SOL     OW 5694   4.225   0.520   2.278 -0.2788 -0.6266  0.0387
 1423SOL    HW2 5695   4.214   0.603   2.325 -0.3670 -1.5694  1.7302
 1423SOL    HW3 5696   4.315   0.493   2.296  0.2435 -0.1674 -1.7593
 1423SOL    MW4 5697   4.236   0.527   2.286 -0.2217 -0.6905  0.0246
 1424SOL     OW 5698   4.294   0.770   2.389 -0.2642 -0.4157 -0.3548
 1424SOL    HW2 5699   4.223   0.826   2.359 -0.9782  0.3279  2.5471
 1424SOL    HW3 5700   4.374   0.819   2.368 -0.7957  0.6694  0.0915
 1424SOL    MW4 5701   4.295   0.784   2.382 -0.4282 -0.1745  0.0868
 1425SOL     OW 5702   4.081   0.891   2.302 -0.5851  0.2189 -0.2396
 1425SOL    HW2 5703   4.090   0.984   2.323 -2.0262  0.1760  0.5648
 1425SOL    HW3 5704   4.095   0.887   2.207 -0.1366  1.1948 -0.2234
 1425SOL    MW4 5705   4.084   0.903   2.292 -0.7162  0.3421 -0.1316
 1426SOL     OW 5706   4.059   1.182   2.366  0.5983 -0.1897 -0.0071
 1426SOL    HW2 5707   4.042   1.173   2.460  1.0477  1.0199  0.2037
 1426SOL    HW3 5708   3.975   1.208   2.329  0.4249 -0.6491  0.0674
 1426SOL    MW4 5709   4.046   1.184   2.374  0.6347 -0.0907  0.0308
 1427SOL     OW 5710   4.252   1.326   2.255 -0.1462  0.3086  0.1399
 1427SOL    HW2 5711   4.197   1.266   2.305 -1.8191  1.4068 -0.3445
 1427SOL    HW3 5712   4.342   1.304   2.281 -0.8101 -1.4825  0.9639
 1427SOL    MW4 5713   4.257   1.316   2.265 -0.4544  0.2171  0.1848
 1428SOL     OW 5714   4.266   1.570   2.387  0.1480  0.2634  0.2328
 1428SOL    HW2 5715   4.255   1.476   2.374 -0.7391  0.3256  0.5119
 1428SOL    HW3 5716   4.340   1.593   2.331 -0.6670 -0.3053 -1.0930
 1428SOL    MW4 5717   4.274   1.561   2.378 -0.0763  0.1966  0.0949
 1429SOL     OW 5718   4.028   1.649   2.274 -0.3738 -0.4326  0.6838
 1429SOL    HW2 5719   4.099   1.603   2.318  0.4211 -0.1563 -0.2753
 1429SOL    HW3 5720   3.951   1.593   2.285  0.1860 -1.1374  1.0151
 1429SOL    MW4 5721   4.027   1.636   2.281 -0.1950 -0.4891  0.6008
 1430SOL     OW 5722   4.013   1.915   2.319 -0.3522 -0.2115 -0.0860
 1430SOL    HW2 5723   4.026   1.918   2.414  2.4367 -1.4219 -0.3700
 1430SOL    HW3 5724   4.028   1.823   2.296  0.9263  0.4231 -1.9292
 1430SOL    MW4 5725   4.017   1.903   2.328  0.1850 -0.2874 -0.3664
 1431SOL     OW 5726   4.252   2.036   2.273  0.5142 -0.0567  0.1763
 1431SOL    HW2 5727   4.247   2.125   2.309  0.1195  0.1219 -0.3085
 1431SOL    HW3 5728   4.166   1.998   2.291  1.2453 -0.9392  1.8928
 1431SOL    MW4 5729   4.240   2.043   2.280  0.5589 -0.1497  0.3388
 1432SOL     OW 5730   4.244   2.277   2.403  0.2217 -0.1782 -0.1358
 1432SOL    HW2 5731   4.178   2.327   2.355  1.2855  0.9139 -0.4954
 1432SOL    HW3 5732   4.327   2.302   2.362  0.9302 -0.9329  0.8253
 1432SOL    MW4 5733   4.247   2.287   2.391  0.4554 -0.1338 -0.0565
 1433SOL     OW 5734   4.027   2.447   2.264 -0.5186 -0.1037 -0.2353
 1433SOL    HW2 5735   4.026   2.537   2.296  0.2099 -0.2854  0.3005
 1433SOL    HW3 5736   3.948   2.408   2.301 -0.1012 -0.0816  0.6963
 1433SOL    MW4 5737   4.016   2.454   2.273 -0.3676 -0.1247 -0.0420
 1434SOL     OW 5738   4.056   2.703   2.338 -0.0269 -0.2349  0.1181
 1434SOL    HW2 5739   4.057   2.713   2.434  1.0628 -2.1599  0.3315
 1434SOL    HW3 5740   4.008   2.780   2.307 -0.1041  0.5997  2.1883
 1434SOL    MW4 5741   4.050   2.714   2.347  0.1068 -0.3786  0.4194
 1435SOL     OW 5742   4.307   2.781   2.223  0.0729  0.5332 -0.2643
 1435SOL    HW2 5743   4.234   2.735   2.263 -0.8252 -0.0727 -2.4922
 1435SOL    HW3 5744   4.385   2.741   2.261 -0.7255 -1.3870 -0.5754
 1435SOL    MW4 5745   4.308   2.770   2.233 -0.1507  0.2000 -0.5994
 1436SOL     OW 5746   4.258   3.046   2.319 -0.2519 -0.1508  0.4236
 1436SOL    HW2 5747   4.246   2.954   2.294 -1.4812  0.1248 -0.0369
 1436SOL    HW3 5748   4.327   3.077   2.261  0.2546 -0.8197  0.6607
 1436SOL    MW4 5749   4.265   3.038   2.308 -0.3471 -0.2024  0.3939
 1437SOL     OW 5750   4.035   3.211   2.259  0.2098  0.0054 -0.5363
 1437SOL    HW2 5751   4.045   3.291   2.310  0.1737 -0.0709 -0.4092
 1437SOL    HW3 5752   4.113   3.159   2.281  0.5490  0.2686 -1.0935
 1437SOL    MW4 5753   4.047   3.214   2.269  0.2499  0.0300 -0.5929
 1438SOL     OW 5754   4.097   3.466   2.369  0.1019  0.2810  0.0261
 1438SOL    HW2 5755   4.170   3.509   2.325  0.1352  0.0252 -0.1702
 1438SOL    HW3 5756   4.019   3.502   2.327  0.0409  2.0046  1.5542
 1438SOL    MW4 5757   4.096   3.476   2.358  0.0978  0.4745  0.2019
 1439SOL     OW 5758   4.295   3.625   2.248  0.2018  0.0902  0.3571
 1439SOL    HW2 5759   4.261   3.713   2.263 -0.1442  0.0117  0.0628
 1439SOL    HW3 5760   4.297   3.616   2.153 -0.0412 -0.3176  0.3862
 1439SOL    MW4 5761   4.291   3.635   2.238  0.1235  0.0260  0.3221
 1440SOL     OW 5762   4.233   3.891   2.365 -0.1020 -0.1699  0.9316
 1440SOL    HW2 5763   4.246   3.887   2.459 -0.4212 -1.0467  0.9414
 1440SOL    HW3 5764   4.318   3.920   2.330  0.4167 -1.1439  1.3806
 1440SOL    MW4 5765   4.246   3.894   2.373 -0.0753 -0.4141  0.9923
 1441SOL     OW 5766   4.019   4.003   2.244  0.6143  0.1996  0.1792
 1441SOL    HW2 5767   4.086   3.952   2.288  0.7951 -0.4862 -0.8609
 1441SOL    HW3 5768   4.037   3.991   2.151 -0.4801  0.6331 -0.1028
 1441SOL    MW4 5769   4.030   3.995   2.237  0.4935  0.1664  0.0048
 1442SOL     OW 5770   4.039   4.255   2.359 -0.0873  0.2644 -0.0444
 1442SOL    HW2 5771   4.104   4.305   2.310  0.1589 -0.4399 -0.4464
 1442SOL    HW3 5772   4.045   4.166   2.324 -1.0463  0.1177  0.1365
 1442SOL    MW4 5773   4.048   4.250   2.348 -0.1812  0.1521 -0.0737
 1443SOL     OW 5774   4.250   4.415   2.257  0.1524  0.3159 -0.3260
 1443SOL    HW2 5775   4.257   4.498   2.303  0.0691 -0.2772  0.7789
 1443SOL    HW3 5776   4.320   4.361   2.294 -0.7043 -0.5851  0.0222
 1443SOL    MW4 5777   4.260   4.419   2.268  0.0281  0.1187 -0.1340
 1444SOL     OW 5778   0.231   4.657   2.642 -0.8457 -0.0375 -0.3045
 1444SOL    HW2 5779   0.222   4.565   2.668 -1.8442 -0.3876 -1.8241
 1444SOL    HW3 5780   0.159   4.701   2.687  0.8031  0.3639  1.9901
 1444SOL    MW4 5781   0.220   4.651   2.651 -0.7599 -0.0310 -0.2024
 1445SOL     OW 5782   0.026   0.142   2.761 -0.1460 -0.1198  0.6901
 1445SOL    HW2 5783   0.026   0.153   2.856  2.0797  0.2038  0.6791
 1445SOL    HW3 5784   0.015   0.231   2.727  1.0235  0.0313  0.6656
 1445SOL    MW4 5785   0.025   0.155   2.769  0.3019 -0.0572  0.6855
 1446SOL     OW 5786   0.017   0.405   2.641  0.0093  0.1050 -0.1480
 1446SOL    HW2 5787   0.094   0.458   2.662 -1.2316  1.2396  1.6835
 1446SOL    HW3 5788   0.010   0.410   2.545  2.5536 -0.5507 -0.3997
 1446SOL    MW4 5789   0.026   0.413   2.631  0.1807  0.1682  0.0606
 1447SOL     OW 5790   0.257   0.526   2.748 -0.4390  0.6026  0.0676
 1447SOL    HW2 5791   0.271   0.522   2.842 -0.4574  0.8612  0.0824
 1447SOL    HW3 5792   0.316   0.459   2.712 -0.4469  0.4913  0.2636
 1447SOL    MW4 5793   0.267   0.517   2.755 -0.4424  0.6220  0.0954
 1448SOL     OW 5794   0.215   0.764   2.650  0.1399 -0.3528  0.6196
 1448SOL    HW2 5795   0.297   0.800   2.685  1.7956 -2.2529 -1.1893
 1448SOL    HW3 5796   0.217   0.672   2.676 -0.9894 -0.6129 -0.2266
 1448SOL    MW4 5797   0.226   0.757   2.658  0.2093 -0.6378  0.2694
 1449SOL     OW 5798   0.006   0.902   2.760 -0.2129  0.4764 -0.0642
 1449SOL    HW2 5799  -0.064   0.838   2.741 -0.4075  0.2340  1.3871
 1449SOL    HW3 5800   0.085   0.862   2.723 -0.5863  0.0810 -0.4544
 1449SOL    MW4 5801   0.007   0.888   2.752 -0.2879  0.3923  0.0758
 1450SOL     OW 5802   4.484   1.160   2.644 -0.5330 -0.1970 -0.1966
 1450SOL    HW2 5803   4.562   1.201   2.681 -0.0114  0.0980 -1.5679
 1450SOL    HW3 5804   4.486   1.070   2.678  0.1305 -0.0371  0.1975
 1450SOL    MW4 5805   4.495   1.153   2.653 -0.3766 -0.1369 -0.3254
 1451SOL     OW 5806   0.214   1.275   2.752 -0.1539 -0.3143  0.2555
 1451SOL    HW2 5807   0.280   1.225   2.705 -0.4932 -1.2933  0.7962
 1451SOL    HW3 5808   0.221   1.364   2.717 -1.4566 -1.3411 -2.7984
 1451SOL    MW4 5809   0.223   1.280   2.741 -0.3705 -0.5789 -0.0761
 1452SOL     OW 5810   0.219   1.521   2.629 -1.0454  0.0523  0.0020
 1452SOL    HW2 5811   0.303   1.559   2.654 -1.0068  0.0684 -0.1486
 1452SOL    HW3 5812   0.153   1.576   2.670 -0.9509 -1.1220  1.7791
 1452SOL    MW4 5813   0.222   1.533   2.638 -1.0279 -0.1005  0.2165
 1453SOL     OW 5814   0.043   1.694   2.764  0.1284 -0.4310  0.1245
 1453SOL    HW2 5815   0.018   1.698   2.856  1.6843 -0.9965  0.5807
 1453SOL    HW3 5816   0.018   1.779   2.728 -0.5309 -0.2314  1.0478
 1453SOL    MW4 5817   0.036   1.706   2.771  0.2467 -0.4792  0.3064
 1454SOL     OW 5818   4.463   1.942   2.662 -0.2506  0.3308 -0.1234
 1454SOL    HW2 5819   4.546   1.983   2.685  0.2458 -0.9828  0.4915
 1454SOL    HW3 5820   4.462   1.940   2.567  0.2803  0.6580 -0.1344
 1454SOL    MW4 5821   4.474   1.947   2.653 -0.1149  0.2006 -0.0436
 1455SOL     OW 5822   0.223   2.053   2.714  0.2370  0.0994 -0.1626
 1455SOL    HW2 5823   0.298   2.001   2.683 -0.6317 -0.4972 -1.2854
 1455SOL    HW3 5824   0.244   2.142   2.688  1.1362  0.1252  0.6266
 1455SOL    MW4 5825   0.236   2.058   2.707  0.2411  0.0243 -0.2067
 1456SOL     OW 5826   0.246   2.328   2.661 -0.0678 -0.0438 -0.4813
 1456SOL    HW2 5827   0.321   2.375   2.698 -0.0715  0.0732 -0.6215
 1456SOL    HW3 5828   0.171   2.362   2.710  0.3418 -2.7497  2.1631
 1456SOL    MW4 5829   0.246   2.339   2.672 -0.0142 -0.3853 -0.1509
 1457SOL     OW 5830   0.020   2.425   2.764 -0.3303 -0.5117  0.0626
 1457SOL    HW2 5831   0.018   2.425   2.860 -2.2046  0.0528  0.0468
 1457SOL    HW3 5832  -0.061   2.380   2.739 -0.1472 -0.1158 -1.2495
 1457SOL    MW4 5833   0.009   2.419   2.774 -0.5536 -0.3848 -0.1123
 1458SOL     OW 5834   0.002   2.668   2.593 -0.0855 -0.1335 -0.0387
 1458SOL    HW2 5835  -0.056   2.735   2.629 -1.8352 -1.5017 -0.1779
 1458SOL    HW3 5836  -0.009   2.593   2.652 -0.3696 -1.2494 -1.4710
 1458SOL    MW4 5837  -0.007   2.667   2.605 -0.3538 -0.4613 -0.2460
 1459SOL     OW 5838   0.238   2.825   2.699  0.1455  0.0730  0.2296
 1459SOL    HW2 5839   0.219   2.916   2.675  0.3548 -0.3392 -1.5412
 1459SOL    HW3 5840   0.158   2.777   2.675  0.2506 -0.3062  0.6302
 1459SOL    MW4 5841   0.225   2.831   2.693  0.1870 -0.0315  0.0491
 1460SOL     OW 5842   0.212   3.081   2.623  0.1298 -0.1107 -0.0548
 1460SOL    HW2 5843   0.291   3.118   2.662  0.9702  0.6038 -2.3712
 1460SOL    HW3 5844   0.223   3.095   2.529 -3.0204  0.5185 -0.3743
 1460SOL    MW4 5845   0.224   3.088   2.616 -0.1749  0.0663 -0.4027
 1461SOL     OW 5846   4.484   3.212   2.740 -0.3297  0.0335 -0.8647
 1461SOL    HW2 5847   4.415   3.161   2.697 -0.7556  0.9531 -1.2988
 1461SOL    HW3 5848   4.564   3.188   2.693 -0.3901 -0.8350 -0.5382
 1461SOL    MW4 5849   4.485   3.202   2.728 -0.3939  0.0405 -0.8788
 1462SOL     OW 5850   4.451   3.494   2.689  0.0467  0.2994  0.0980
 1462SOL    HW2 5851   4.544   3.511   2.705  0.3186 -0.1418 -0.9742
 1462SOL    HW3 5852   4.436   3.406   2.723 -0.5449  1.2280  2.4065
 1462SOL    MW4 5853   4.461   3.485   2.696  0.0043  0.3636  0.2608
 1463SOL     OW 5854   0.211   3.582   2.746 -0.4623  0.2807  0.3322
 1463SOL    HW2 5855   0.208   3.582   2.842 -0.9114 -0.9464  0.3246
 1463SOL    HW3 5856   0.295   3.542   2.724 -0.2308  0.8281  0.2093
 1463SOL    MW4 5857   0.221   3.577   2.756 -0.4910  0.1910  0.3150
 1464SOL     OW 5858   0.212   3.859   2.667 -0.3211  0.4507 -0.4358
 1464SOL    HW2 5859   0.205   3.766   2.692  0.5323  0.0599 -1.5998
 1464SOL    HW3 5860   0.228   3.857   2.572 -2.0065  1.8544 -0.7751
 1464SOL    MW4 5861   0.213   3.846   2.658 -0.4309  0.5844 -0.6344
 1465SOL     OW 5862   4.488   4.021   2.747 -0.0447  0.1339  0.3028
 1465SOL    HW2 5863   4.479   4.102   2.696 -1.6633 -0.3117 -0.1525
 1465SOL    HW3 5864   4.561   3.975   2.706 -0.3141  0.5109 -0.6116
 1465SOL    MW4 5865   4.496   4.026   2.735 -0.2938  0.1249  0.1221
 1466SOL     OW 5866   0.008   4.268   2.606 -0.6828 -0.0308 -0.1331
 1466SOL    HW2 5867  -0.062   4.314   2.652 -0.9271 -0.9359  0.4077
 1466SOL    HW3 5868   0.088   4.291   2.654 -1.0259 -1.5312  1.1808
 1466SOL    MW4 5869   0.009   4.277   2.618 -0.7603 -0.3481  0.1116
 1467SOL     OW 5870   0.223   4.394   2.743  0.3735 -0.3178 -0.1150
 1467SOL    HW2 5871   0.239   4.379   2.836 -1.1876  1.7540  0.5199
 1467SOL    HW3 5872   0.301   4.360   2.699  0.4590 -2.7030  1.8212
 1467SOL    MW4 5873   0.235   4.388   2.749  0.1788 -0.3595  0.2244
 1468SOL     OW 5874   0.664   4.639   2.645  0.4911 -0.0537  0.6560
 1468SOL    HW2 5875   0.734   4.700   2.668 -0.3906  1.2234  0.0352
 1468SOL    HW3 5876   0.583   4.683   2.673 -0.0150 -1.8732  2.1205
 1468SOL    MW4 5877   0.662   4.653   2.651  0.3080 -0.1249  0.7672
 1469SOL     OW 5878   0.459   0.100   2.742  0.7408  0.4228 -0.4656
 1469SOL    HW2 5879   0.461   0.086   2.836  0.2613  1.0122 -0.3624
 1469SOL    HW3 5880   0.377   0.060   2.713 -0.3889  2.4961 -0.2399
 1469SOL    MW4 5881   0.448   0.093   2.750  0.5285  0.7741 -0.4222
 1470SOL     OW 5882   0.470   0.379   2.632 -0.3261  0.1271  0.6942
 1470SOL    HW2 5883   0.531   0.432   2.683  0.5124  1.5299 -1.7428
 1470SOL    HW3 5884   0.479   0.291   2.670  0.3739  1.0789  2.8537
 1470SOL    MW4 5885   0.479   0.374   2.644 -0.1231  0.4378  0.6576
 1471SOL     OW 5886   0.658   0.506   2.775  0.0371 -0.1267 -0.0543
 1471SOL    HW2 5887   0.656   0.509   2.870  0.5818  0.5972 -0.0635
 1471SOL    HW3 5888   0.743   0.468   2.754 -0.4362 -1.0944 -0.2386
 1471SOL    MW4 5889   0.669   0.501   2.785  0.0464 -0.1588 -0.0799
 1472SOL     OW 5890   0.697   0.731   2.628  0.5260  0.0831  0.7131
 1472SOL    HW2 5891   0.778   0.772   2.660  0.5201  0.1951  0.5829
 1472SOL    HW3 5892   0.687   0.653   2.683  0.9398 -0.1470  0.4636
 1472SOL    MW4 5893   0.707   0.726   2.640  0.5799  0.0675  0.6630
 1473SOL     OW 5894   0.468   0.858   2.742  0.0217 -0.1413  0.3586
 1473SOL    HW2 5895   0.465   0.939   2.692  1.1891  0.2990  0.9907
 1473SOL    HW3 5896   0.542   0.809   2.705 -0.7614 -0.9834 -0.1113
 1473SOL    MW4 5897   0.477   0.862   2.731  0.0724 -0.1944  0.3798
 1474SOL     OW 5898   0.412   1.122   2.656 -0.1446  0.3201 -0.5080
 1474SOL    HW2 5899   0.486   1.164   2.700 -0.9501  1.2837 -0.0611
 1474SOL    HW3 5900   0.424   1.142   2.564 -0.5367  1.5438 -0.2943
 1474SOL    MW4 5901   0.423   1.130   2.650 -0.3026  0.6087 -0.4208
 1475SOL     OW 5902   0.640   1.241   2.769  0.0117  0.3561  0.0310
 1475SOL    HW2 5903   0.643   1.249   2.864 -0.2631  0.0039  0.0682
 1475SOL    HW3 5904   0.721   1.196   2.745 -1.5033 -2.6927  0.4076
 1475SOL    MW4 5905   0.651   1.236   2.778 -0.2244 -0.0927  0.0858
 1476SOL     OW 5906   0.666   1.494   2.633  0.5021  0.0646 -0.5836
 1476SOL    HW2 5907   0.597   1.551   2.666 -0.1478  0.1965 -2.0905
 1476SOL    HW3 5908   0.644   1.407   2.668  1.4336  0.6976  1.6211
 1476SOL    MW4 5909   0.654   1.490   2.642  0.5392  0.1655 -0.4914
 1477SOL     OW 5910   0.446   1.650   2.714 -0.6699 -0.5494 -0.3270
 1477SOL    HW2 5911   0.447   1.664   2.809  0.1239 -2.1898 -0.0782
 1477SOL    HW3 5912   0.455   1.737   2.677  1.8079 -0.1351  1.1306
 1477SOL    MW4 5913   0.447   1.663   2.722 -0.2383 -0.7112 -0.1018
 1478SOL     OW 5914   0.447   1.908   2.622  0.4598  0.1828 -0.2092
 1478SOL    HW2 5915   0.521   1.963   2.646 -0.4461  1.3684 -0.1251
 1478SOL    HW3 5916   0.445   1.911   2.526  0.3491  0.3773 -0.2007
 1478SOL    MW4 5917   0.456   1.915   2.612  0.3256  0.3649 -0.1969
 1479SOL     OW 5918   0.660   2.062   2.701 -0.7921  0.3736 -0.6269
 1479SOL    HW2 5919   0.658   2.071   2.796 -0.3668  0.2440 -0.6043
 1479SOL    HW3 5920   0.744   2.020   2.682 -0.0899  1.9654 -1.1945
 1479SOL    MW4 5921   0.671   2.058   2.711 -0.6433  0.5665 -0.6988
 1480SOL     OW 5922   0.664   2.320   2.626  0.0415  0.4872  0.5405
 1480SOL    HW2 5923   0.748   2.355   2.657  0.3944  0.2306 -0.1003
 1480SOL    HW3 5924   0.668   2.227   2.648 -0.2264  0.5468  0.8336
 1480SOL    MW4 5925   0.676   2.312   2.633  0.0528  0.4611  0.4947
 1481SOL     OW 5926   0.473   2.457   2.766  0.7037 -0.2549 -0.0463
 1481SOL    HW2 5927   0.466   2.537   2.713  1.6359 -0.2607 -0.1823
 1481SOL    HW3 5928   0.537   2.403   2.720  0.4968 -0.8490  0.3503
 1481SOL    MW4 5929   0.481   2.460   2.753  0.7994 -0.3340 -0.0119
 1482SOL     OW 5930   0.471   2.698   2.616 -0.5734 -0.3638  0.0688
 1482SOL    HW2 5931   0.545   2.746   2.652 -1.6987  1.3919  0.1292
 1482SOL    HW3 5932   0.394   2.742   2.653 -1.6320 -2.4190  0.3411
 1482SOL    MW4 5933   0.471   2.710   2.625 -0.8616 -0.4034  0.1128
 1483SOL     OW 5934   0.674   2.818   2.748  0.2046  0.4375 -0.0242
 1483SOL    HW2 5935   0.652   2.840   2.839  1.0536 -0.1087  0.3165
 1483SOL    HW3 5936   0.673   2.902   2.703  1.1967  0.8952  0.7968
 1483SOL    MW4 5937   0.671   2.832   2.754  0.4476  0.4258  0.1292
 1484SOL     OW 5938   0.678   3.094   2.676 -0.1377 -0.3691  0.1821
 1484SOL    HW2 5939   0.761   3.121   2.715 -0.2259  0.3771 -0.1369
 1484SOL    HW3 5940   0.691   3.104   2.582 -0.6330 -0.1108  0.1371
 1484SOL    MW4 5941   0.691   3.099   2.669 -0.2147 -0.2365  0.1342
 1485SOL     OW 5942   0.433   3.176   2.782 -0.3057 -0.6937  0.1332
 1485SOL    HW2 5943   0.429   3.190   2.876  0.0072 -1.4482  0.2645
 1485SOL    HW3 5944   0.517   3.132   2.768 -0.6619 -1.2092 -0.4121
 1485SOL    MW4 5945   0.444   3.172   2.792 -0.3114 -0.8612  0.0784
 1486SOL     OW 5946   0.458   3.461   2.680  0.1920  0.3659 -0.5363
 1486SOL    HW2 5947   0.448   3.368   2.701 -0.1923  0.5745  0.1912
 1486SOL    HW3 5948   0.463   3.463   2.584  0.3930 -0.4208 -0.5492
 1486SOL    MW4 5949   0.458   3.449   2.670  0.1678  0.2899 -0.4423
 1487SOL     OW 5950   0.673   3.619   2.718 -0.0397  0.6601  0.3423
 1487SOL    HW2 5951   0.667   3.641   2.811 -0.5508  0.2910  0.3935
 1487SOL    HW3 5952   0.596   3.566   2.700  0.1706  0.5470 -0.2447
 1487SOL    MW4 5953   0.662   3.615   2.727 -0.0794  0.5965  0.2716
 1488SOL     OW 5954   0.641   3.885   2.622  0.5550  0.1042  0.1520
 1488SOL    HW2 5955   0.577   3.918   2.684 -0.5741 -1.6907 -0.0367
 1488SOL    HW3 5956   0.657   3.795   2.649  1.0214 -0.2891 -1.3887
 1488SOL    MW4 5957   0.635   3.878   2.634  0.4676 -0.1841 -0.0763
 1489SOL     OW 5958   0.442   4.020   2.759  0.2548  0.1003  0.2069
 1489SOL    HW2 5959   0.438   4.100   2.707  1.4524  0.4755  0.6863
 1489SOL    HW3 5960   0.361   3.973   2.737 -2.2558  3.0493  2.5359
 1489SOL    MW4 5961   0.431   4.025   2.749  0.0816  0.5393  0.5777
 1490SOL     OW 5962   0.457   4.285   2.652 -0.0062  0.1602  0.3051
 1490SOL    HW2 5963   0.523   4.332   2.702 -0.2799  0.9731 -0.0942
 1490SOL    HW3 5964   0.484   4.294   2.561 -0.6650  0.4899  0.1415
 1490SOL    MW4 5965   0.469   4.292   2.647 -0.1292  0.3114  0.2310
 1491SOL     OW 5966   0.661   4.396   2.788 -0.0310  0.0383  0.4698
 1491SOL    HW2 5967   0.738   4.347   2.758 -0.9690 -0.3606 -1.3578
 1491SOL    HW3 5968   0.663   4.477   2.737 -1.7567 -0.7371 -0.9033
 1491SOL    MW4 5969   0.671   4.400   2.777 -0.3824 -0.1168  0.0474
 1492SOL     OW 5970   1.130   4.617   2.634 -0.5626 -0.1186  0.2967
 1492SOL    HW2 5971   1.209   4.651   2.675 -0.7354 -0.8962  1.3022
 1492SOL    HW3 5972   1.126   4.525   2.662 -1.5511 -0.2161 -0.1496
 1492SOL    MW4 5973   1.140   4.609   2.644 -0.7157 -0.2341  0.3705
 1493SOL     OW 5974   0.903   0.110   2.723 -0.4563  0.0112 -0.2748
 1493SOL    HW2 5975   0.907   0.111   2.818  1.2339 -1.7511 -0.2956
 1493SOL    HW3 5976   0.986   0.070   2.696 -1.1028  0.0800 -2.4653
 1493SOL    MW4 5977   0.914   0.105   2.732 -0.3186 -0.2122 -0.5665
 1494SOL     OW 5978   0.889   0.391   2.673  0.4094  0.7900 -0.6597
 1494SOL    HW2 5979   0.885   0.295   2.679  0.3356  0.8376  0.1088
 1494SOL    HW3 5980   0.901   0.408   2.579  0.4032  0.0310 -0.8085
 1494SOL    MW4 5981   0.890   0.380   2.661  0.3989  0.6961 -0.5777
 1495SOL     OW 5982   1.133   0.486   2.737  0.2017 -0.5280 -0.3774
 1495SOL    HW2 5983   1.128   0.577   2.708 -0.5217 -1.1062 -2.1319
 1495SOL    HW3 5984   1.052   0.446   2.705  0.5168 -1.7913  0.3663
 1495SOL    MW4 5985   1.122   0.492   2.729  0.1477 -0.7709 -0.5109
 1496SOL     OW 5986   1.124   0.754   2.656 -0.6042  0.1746  0.4410
 1496SOL    HW2 5987   1.195   0.805   2.696  0.8968 -1.3523 -0.1779
 1496SOL    HW3 5988   1.143   0.758   2.562 -1.0505 -0.6774  0.3155
 1496SOL    MW4 5989   1.136   0.761   2.649 -0.4650 -0.1392  0.3431
 1497SOL     OW 5990   0.901   0.872   2.755 -0.0436 -0.2763  0.2801
 1497SOL    HW2 5991   0.916   0.893   2.847 -1.3731 -3.7581  1.4099
 1497SOL    HW3 5992   0.980   0.825   2.727  0.3102  0.6737 -0.3166
 1497SOL    MW4 5993   0.913   0.868   2.763 -0.1723 -0.6104  0.3502
 1498SOL     OW 5994   0.881   1.136   2.690 -0.0961  0.0244 -0.1221
 1498SOL    HW2 5995   0.894   1.042   2.696  3.1310  0.4162  0.0076
 1498SOL    HW3 5996   0.909   1.158   2.601 -1.3974  0.8128 -0.3586
 1498SOL    MW4 5997   0.886   1.127   2.679  0.1579  0.1802 -0.1364
 1499SOL     OW 5998   1.109   1.240   2.804  0.0641 -0.1131 -0.2029
 1499SOL    HW2 5999   1.118   1.310   2.739  1.7626 -1.4868 -1.4937
 1499SOL    HW3 6000   1.023   1.201   2.785 -0.0409  0.3673 -0.7311
 1499SOL    MW4 6001   1.099   1.244   2.793  0.2743 -0.2310 -0.4430
 1500SOL     OW 6002   1.122   1.478   2.641  0.5015  0.0711 -0.1922
 1500SOL    HW2 6003   1.047   1.535   2.656  1.9521  1.6688  1.2286
 1500SOL    HW3 6004   1.134   1.478   2.546 -1.6408 -0.7114 -0.4962
 1500SOL    MW4 6005   1.113   1.486   2.630  0.4103  0.1787 -0.0448
 1501SOL     OW 6006   0.899   1.634   2.709  0.5509  0.3301  0.4815
 1501SOL    HW2 6007   0.895   1.639   2.805  0.6354  0.7069  0.4687
 1501SOL    HW3 6008   0.836   1.567   2.686 -0.5308  1.2448  0.7221
 1501SOL    MW4 6009   0.890   1.626   2.719  0.4193  0.5006  0.5114
 1502SOL     OW 6010   0.884   1.908   2.609 -0.2631 -0.0050  0.3853
 1502SOL    HW2 6011   0.954   1.960   2.648 -0.9779  1.2560  0.0122
 1502SOL    HW3 6012   0.910   1.817   2.625  0.7862  0.4641  1.4175
 1502SOL    MW4 6013   0.897   1.903   2.616 -0.2189  0.2233  0.4721
 1503SOL     OW 6014   1.101   2.062   2.716 -0.0079  0.0353 -0.3552
 1503SOL    HW2 6015   1.184   2.023   2.692  0.0081 -0.1984  0.0861
 1503SOL    HW3 6016   1.102   2.149   2.674  0.0814 -0.3079 -1.0697
 1503SOL    MW4 6017   1.112   2.069   2.707  0.0060 -0.0410 -0.3915
 1504SOL     OW 6018   1.124   2.318   2.619 -0.2590 -0.7473 -0.0254
 1504SOL    HW2 6019   1.202   2.363   2.651 -0.6489 -1.0733  1.4307
 1504SOL    HW3 6020   1.118   2.343   2.527  0.0339  1.4920  0.5362
 1504SOL    MW4 6021   1.133   2.327   2.611 -0.2717 -0.4952  0.2410
 1505SOL     OW 6022   0.904   2.409   2.743  0.0300  0.2779  0.4370
 1505SOL    HW2 6023   0.902   2.499   2.712  0.7078  0.2359  0.2628
 1505SOL    HW3 6024   0.979   2.370   2.698 -2.0118 -1.2118 -1.8587
 1505SOL    MW4 6025   0.914   2.416   2.733 -0.1500  0.0758  0.1113
 1506SOL     OW 6026   0.874   2.673   2.635 -0.1381 -0.4529 -0.4665
 1506SOL    HW2 6027   0.947   2.714   2.680  0.8976 -0.2889 -2.2420
 1506SOL    HW3 6028   0.796   2.710   2.676  0.7745  0.7483  0.2044
 1506SOL    MW4 6029   0.873   2.683   2.646  0.1189 -0.2725 -0.6125
 1507SOL     OW 6030   1.083   2.832   2.735  0.2486 -0.2676  0.4323
 1507SOL    HW2 6031   1.106   2.825   2.828  1.5140 -1.7405  0.0465
 1507SOL    HW3 6032   1.159   2.795   2.689 -0.6425 -0.1861 -1.1597
 1507SOL    MW4 6033   1.096   2.826   2.741  0.2979 -0.4511  0.1714
 1508SOL     OW 6034   1.148   3.096   2.655  0.4675  0.1291  0.6491
 1508SOL    HW2 6035   1.122   3.007   2.677  0.9536 -0.3130 -0.5071
 1508SOL    HW3 6036   1.136   3.101   2.560 -0.0427  1.4536  0.7736
 1508SOL    MW4 6037   1.143   3.085   2.645  0.4642  0.2458  0.5128
 1509SOL     OW 6038   0.919   3.208   2.767 -0.3845 -0.4667  0.3890
 1509SOL    HW2 6039   0.903   3.287   2.715  1.3812 -0.1719  0.2680
 1509SOL    HW3 6040   1.006   3.179   2.741 -0.2571 -1.4057  1.7840
 1509SOL    MW4 6041   0.929   3.215   2.757 -0.1346 -0.5517  0.5569
 1510SOL     OW 6042   0.887   3.462   2.637 -0.1302  0.0892 -0.2787
 1510SOL    HW2 6043   0.960   3.509   2.676  0.3927 -0.7997 -0.1811
 1510SOL    HW3 6044   0.810   3.512   2.664  0.5023  1.5757 -1.1785
 1510SOL    MW4 6045   0.886   3.475   2.646  0.0222  0.1683 -0.3843
 1511SOL     OW 6046   1.102   3.599   2.774  0.1615  0.2326  0.2429
 1511SOL    HW2 6047   1.101   3.626   2.866  0.0624 -0.5277  0.4648
 1511SOL    HW3 6048   1.100   3.682   2.725 -1.9305  0.6116  0.9045
 1511SOL    MW4 6049   1.102   3.614   2.780 -0.1277  0.1822  0.3598
 1512SOL     OW 6050   1.098   3.851   2.622 -0.3838  0.1780  0.2001
 1512SOL    HW2 6051   1.178   3.889   2.659  0.3914 -0.9768 -0.2628
 1512SOL    HW3 6052   1.111   3.859   2.527 -0.5027 -0.6524  0.1144
 1512SOL    MW4 6053   1.110   3.857   2.614 -0.2972 -0.0842  0.1278
 1513SOL     OW 6054   0.893   4.008   2.729  0.6766 -0.0622 -0.4533
 1513SOL    HW2 6055   0.957   3.963   2.674  0.2405 -0.5256 -0.5947
 1513SOL    HW3 6056   0.809   3.968   2.704  0.5103 -0.4734  0.7604
 1513SOL    MW4 6057   0.890   3.997   2.718  0.5971 -0.1779 -0.3119
 1514SOL     OW 6058   0.888   4.266   2.665  0.2350  0.1918  0.1863
 1514SOL    HW2 6059   0.892   4.173   2.689 -0.4686  0.0223 -0.3234
 1514SOL    HW3 6060   0.884   4.265   2.569 -2.1975  0.6406  0.2422
 1514SOL    MW4 6061   0.888   4.253   2.655 -0.1788  0.2289  0.1261
 1515SOL     OW 6062   1.144   4.351   2.722 -0.3372  0.3408  0.0539
 1515SOL    HW2 6063   1.137   4.378   2.813 -1.9547  0.6239 -0.1460
 1515SOL    HW3 6064   1.055   4.327   2.697  0.0049  0.7500 -1.6052
 1515SOL    MW4 6065   1.131   4.351   2.731 -0.5056  0.4325 -0.1915
 1516SOL     OW 6066   1.593   4.643   2.655 -0.5858  0.1830 -0.8191
 1516SOL    HW2 6067   1.588   4.549   2.671  0.2761  0.2928  0.1522
 1516SOL    HW3 6068   1.581   4.652   2.561 -0.5009 -0.9106 -0.9408
 1516SOL    MW4 6069   1.591   4.632   2.645 -0.4609  0.0529 -0.7069
 1517SOL     OW 6070   1.351   0.086   2.746  0.0949  0.2861  0.2199
 1517SOL    HW2 6071   1.350   0.171   2.702 -0.4397  1.1710  1.8970
 1517SOL    HW3 6072   1.436   0.049   2.726  0.4328  1.3364 -0.3057
 1517SOL    MW4 6073   1.362   0.093   2.737  0.0689  0.5414  0.3717
 1518SOL     OW 6074   1.360   0.344   2.646  0.1124  0.0855  0.4643
 1518SOL    HW2 6075   1.437   0.387   2.682 -0.2801  0.7059  0.5756
 1518SOL    HW3 6076   1.286   0.396   2.678 -0.2573  0.4730 -0.9680
 1518SOL    MW4 6077   1.360   0.356   2.655  0.0118  0.2184  0.2897
 1519SOL     OW 6078   1.566   0.501   2.735  0.1934  0.1375 -0.5931
 1519SOL    HW2 6079   1.641   0.458   2.694  0.8917  1.3470 -0.6268
 1519SOL    HW3 6080   1.565   0.589   2.695 -0.7779  0.3856 -0.0343
 1519SOL    MW4 6081   1.576   0.507   2.724  0.1574  0.3299 -0.5238
 1520SOL     OW 6082   1.571   0.749   2.637  0.6072  0.0905 -0.6576
 1520SOL    HW2 6083   1.490   0.778   2.680  1.9278 -0.8573  2.5584
 1520SOL    HW3 6084   1.566   0.787   2.549 -2.8437  0.8897 -0.1880
 1520SOL    MW4 6085   1.559   0.758   2.631  0.3262  0.0709 -0.1714
 1521SOL     OW 6086   1.337   0.859   2.764  0.5782  0.0123 -0.1524
 1521SOL    HW2 6087   1.328   0.833   2.856 -1.0844  0.4570 -0.1607
 1521SOL    HW3 6088   1.331   0.955   2.766  1.7048  0.1019 -0.6159
 1521SOL    MW4 6089   1.335   0.869   2.776  0.5075  0.0828 -0.2148
 1522SOL     OW 6090   1.335   1.125   2.679  0.1783 -0.2873 -0.0344
 1522SOL    HW2 6091   1.413   1.167   2.716  1.2859 -0.4876 -2.1151
 1522SOL    HW3 6092   1.262   1.163   2.728  1.4839  0.8158  1.0829
 1522SOL    MW4 6093   1.335   1.135   2.691  0.4966 -0.1682 -0.1616
 1523SOL     OW 6094   1.558   1.260   2.777  0.6064 -0.7468  0.3236
 1523SOL    HW2 6095   1.578   1.271   2.870  0.5103  0.9292  0.1468
 1523SOL    HW3 6096   1.639   1.228   2.738  0.9118 -0.5762  0.8247
 1523SOL    MW4 6097   1.571   1.257   2.784  0.6341 -0.5031  0.3664
 1524SOL     OW 6098   1.515   1.539   2.694 -0.2215 -0.6583 -0.2540
 1524SOL    HW2 6099   1.527   1.446   2.716 -2.2245 -0.7837  0.4044
 1524SOL    HW3 6100   1.510   1.540   2.598  0.9321 -1.0817 -0.3224
 1524SOL    MW4 6101   1.516   1.526   2.684 -0.3335 -0.7308 -0.1760
 1525SOL     OW 6102   1.300   1.665   2.776  0.2200  0.3110  0.0071
 1525SOL    HW2 6103   1.380   1.625   2.743  0.2833  0.6101 -0.2079
 1525SOL    HW3 6104   1.230   1.605   2.749  0.3524  0.1496  0.0227
 1525SOL    MW4 6105   1.301   1.652   2.768  0.2459  0.3293 -0.0191
 1526SOL     OW 6106   1.342   1.924   2.641  0.0867  0.6204 -0.0118
 1526SOL    HW2 6107   1.316   1.841   2.679 -0.0794  1.0726  0.8829
 1526SOL    HW3 6108   1.337   1.911   2.547  1.1299 -0.7170  0.1061
 1526SOL    MW4 6109   1.338   1.911   2.634  0.2024  0.5035  0.1221
 1527SOL     OW 6110   1.584   2.067   2.742 -0.2939  0.0238 -0.3452
 1527SOL    HW2 6111   1.662   2.038   2.695 -0.7892  0.4165 -1.4113
 1527SOL    HW3 6112   1.515   2.006   2.713 -0.3661 -0.4066  0.6903
 1527SOL    MW4 6113   1.585   2.055   2.732 -0.3687  0.0191 -0.3495
 1528SOL     OW 6114   1.562   2.317   2.654  0.2678  0.0881 -0.4567
 1528SOL    HW2 6115   1.644   2.356   2.682  0.3249 -0.3176 -0.0488
 1528SOL    HW3 6116   1.565   2.227   2.688  0.1207 -0.2599 -1.3450
 1528SOL    MW4 6117   1.573   2.310   2.662  0.2558 -0.0112 -0.5202
 1529SOL     OW 6118   1.332   2.452   2.719  0.3638 -0.1289 -0.3069
 1529SOL    HW2 6119   1.338   2.539   2.679 -0.5656 -0.4022 -1.0502
 1529SOL    HW3 6120   1.416   2.411   2.698 -0.6920 -0.8346 -3.3470
 1529SOL    MW4 6121   1.344   2.458   2.711  0.1017 -0.2582 -0.8059
 1530SOL     OW 6122   1.329   2.709   2.634  0.1076  0.0517 -0.3452
 1530SOL    HW2 6123   1.409   2.736   2.678 -1.1423  0.2671  1.9247
 1530SOL    HW3 6124   1.351   2.707   2.541  2.8162 -0.2662  0.2727
 1530SOL    MW4 6125   1.342   2.712   2.628  0.3000  0.0384  0.0358
 1531SOL     OW 6126   1.573   2.787   2.713  0.1801  0.1354 -0.3312
 1531SOL    HW2 6127   1.569   2.818   2.803  0.4928  1.9641 -0.9327
 1531SOL    HW3 6128   1.663   2.757   2.702 -0.4865 -2.3013  0.6634
 1531SOL    MW4 6129   1.584   2.787   2.723  0.1334  0.0553 -0.2794
 1532SOL     OW 6130   1.597   3.047   2.609  0.0435 -0.4130 -0.2674
 1532SOL    HW2 6131   1.667   3.093   2.655 -0.5391 -0.0384  0.2705
 1532SOL    HW3 6132   1.593   2.961   2.651 -2.0406  0.7290  2.0648
 1532SOL    MW4 6133   1.606   3.042   2.621 -0.3084 -0.2131  0.1113
 1533SOL     OW 6134   1.387   3.208   2.711 -0.1271 -0.2873  0.4043
 1533SOL    HW2 6135   1.448   3.151   2.664 -1.3712  0.6766 -2.5048
 1533SOL    HW3 6136   1.303   3.163   2.704 -0.5153  0.3511  0.8929
 1533SOL    MW4 6137   1.384   3.194   2.704 -0.3426 -0.0761  0.0849
 1534SOL     OW 6138   1.302   3.459   2.618 -0.6359 -0.1072  0.1268
 1534SOL    HW2 6139   1.319   3.370   2.647 -0.1415  0.2371  0.9126
 1534SOL    HW3 6140   1.230   3.490   2.672  0.0995  0.4339  0.8236
 1534SOL    MW4 6141   1.295   3.452   2.629 -0.4737  0.0095  0.3221
 1535SOL     OW 6142   1.556   3.601   2.701 -0.4090 -0.0713 -0.5704
 1535SOL    HW2 6143   1.633   3.551   2.674 -0.5193 -0.1728 -0.6999
 1535SOL    HW3 6144   1.482   3.544   2.680 -0.6466  0.9280 -2.4780
 1535SOL    MW4 6145   1.556   3.587   2.695 -0.4548  0.0472 -0.8392
 1536SOL     OW 6146   1.581   3.904   2.648  0.0177 -0.0157  0.2075
 1536SOL    HW2 6147   1.495   3.930   2.679  0.0155  1.4460 -0.9605
 1536SOL    HW3 6148   1.587   3.811   2.667 -2.6588 -0.5951 -1.6208
 1536SOL    MW4 6149   1.571   3.895   2.655 -0.3358  0.1011 -0.1879
 1537SOL     OW 6150   1.337   3.976   2.743  0.3814 -0.1173  0.0362
 1537SOL    HW2 6151   1.345   3.982   2.838  0.0414  0.6735  0.0157
 1537SOL    HW3 6152   1.341   4.066   2.712  1.2003 -0.4149 -0.7609
 1537SOL    MW4 6153   1.339   3.988   2.751  0.4445 -0.0520 -0.0715
 1538SOL     OW 6154   1.379   4.239   2.641 -0.2014 -0.0956  0.0517
 1538SOL    HW2 6155   1.294   4.278   2.664  0.8259  2.3446 -0.2068
 1538SOL    HW3 6156   1.382   4.243   2.545  0.0790 -0.4998  0.0406
 1538SOL    MW4 6157   1.368   4.245   2.631 -0.0288  0.1731  0.0160
 1539SOL     OW 6158   1.571   4.383   2.737 -0.5426 -0.3212  0.0484
 1539SOL    HW2 6159   1.552   4.406   2.828 -1.6107 -1.1481  0.0495
 1539SOL    HW3 6160   1.493   4.335   2.708  0.4843 -1.5112 -0.7884
 1539SOL    MW4 6161   1.558   4.379   2.746 -0.5481 -0.5870 -0.0620
 1540SOL     OW 6162   2.016   0.050   2.649 -0.4153  0.0721  0.7607
 1540SOL    HW2 6163   2.102   0.072   2.685  0.6490 -2.7880  0.0717
 1540SOL    HW3 6164   2.031   0.038   2.555 -1.9705  1.4686  0.3070
 1540SOL    MW4 6165   2.029   0.051   2.641 -0.4799 -0.1211  0.6104
 1541SOL     OW 6166   1.789   0.149   2.771 -0.2244 -0.0547  0.3562
 1541SOL    HW2 6167   1.873   0.112   2.744  0.3304  1.0840  0.4933
 1541SOL    HW3 6168   1.724   0.099   2.722  0.7207  1.3799 -2.4144
 1541SOL    MW4 6169   1.791   0.137   2.761 -0.0265  0.2848  0.0091
 1542SOL     OW 6170   1.769   0.374   2.615  0.1062 -0.0185 -0.0381
 1542SOL    HW2 6171   1.854   0.408   2.643  0.3198 -1.9536  1.7642
 1542SOL    HW3 6172   1.753   0.298   2.672 -3.1997  0.7737  0.1846
 1542SOL    MW4 6173   1.778   0.368   2.626 -0.3018 -0.1693  0.2294
 1543SOL     OW 6174   1.984   0.492   2.745  0.2188  0.0238  0.0519
 1543SOL    HW2 6175   2.064   0.448   2.715 -0.5557 -0.0550 -1.9946
 1543SOL    HW3 6176   1.998   0.584   2.720 -0.0985  0.1006  0.1648
 1543SOL    MW4 6177   1.996   0.499   2.738  0.0749  0.0236 -0.2031
 1544SOL     OW 6178   2.029   0.754   2.647  0.2109  0.1039  0.2213
 1544SOL    HW2 6179   1.949   0.800   2.671  1.4724  2.9651 -0.8378
 1544SOL    HW3 6180   2.029   0.755   2.551  1.2700 -0.3211  0.2110
 1544SOL    MW4 6181   2.019   0.760   2.637  0.5171  0.4253  0.0801
 1545SOL     OW 6182   1.807   0.875   2.734 -0.1069 -0.2221  0.0741
 1545SOL    HW2 6183   1.806   0.961   2.693  0.4275 -0.2341  0.0267
 1545SOL    HW3 6184   1.742   0.824   2.685  1.1780 -0.5125 -1.3721
 1545SOL    MW4 6185   1.799   0.880   2.722  0.1330 -0.2621 -0.1228
 1546SOL     OW 6186   1.780   1.168   2.642  0.3695 -0.1345 -0.2595
 1546SOL    HW2 6187   1.863   1.209   2.665  0.2818  0.7107 -1.4060
 1546SOL    HW3 6188   1.776   1.175   2.546  0.8150 -3.6645 -0.6207
 1546SOL    MW4 6189   1.790   1.174   2.632  0.4166 -0.4888 -0.4582
 1547SOL     OW 6190   2.011   1.304   2.718  0.1464  0.5446 -0.0039
 1547SOL    HW2 6191   2.021   1.309   2.813  0.2136  0.1721  0.0092
 1547SOL    HW3 6192   2.097   1.274   2.687 -0.0703  0.0598 -0.1283
 1547SOL    MW4 6193   2.024   1.301   2.727  0.1268  0.4313 -0.0181
 1548SOL     OW 6194   2.000   1.556   2.603  0.7233 -0.2585 -0.0850
 1548SOL    HW2 6195   1.926   1.601   2.642  0.5946 -0.5805  0.0444
 1548SOL    HW3 6196   1.996   1.467   2.639 -0.3156 -1.0191 -2.0516
 1548SOL    MW4 6197   1.990   1.550   2.613  0.5692 -0.4013 -0.3273
 1549SOL     OW 6198   1.774   1.708   2.719 -0.1675 -0.5373  0.0526
 1549SOL    HW2 6199   1.772   1.700   2.815 -0.0431 -1.5149 -0.0239
 1549SOL    HW3 6200   1.696   1.663   2.690 -0.9820  1.0184 -0.2368
 1549SOL    MW4 6201   1.764   1.701   2.728 -0.2587 -0.4611  0.0041
 1550SOL     OW 6202   1.794   1.958   2.612 -0.2988  0.1148 -0.2886
 1550SOL    HW2 6203   1.878   1.994   2.640 -0.8611  0.3882  1.0660
 1550SOL    HW3 6204   1.783   1.878   2.663 -1.2647  0.5388  0.1764
 1550SOL    MW4 6205   1.804   1.952   2.622 -0.5003  0.2066 -0.0484
 1551SOL     OW 6206   2.041   2.066   2.691  0.4281 -0.3835  0.3986
 1551SOL    HW2 6207   2.045   2.088   2.785  1.6269  0.2746  0.2081
 1551SOL    HW3 6208   2.035   2.151   2.647 -1.3324 -0.7480 -0.0774
 1551SOL    MW4 6209   2.041   2.080   2.698  0.3538 -0.3448  0.3107
 1552SOL     OW 6210   2.046   2.326   2.577 -0.0791  0.0323 -0.0962
 1552SOL    HW2 6211   2.126   2.374   2.600  0.6214 -0.9221 -0.4761
 1552SOL    HW3 6212   2.042   2.333   2.481 -0.6350  0.3552 -0.0502
 1552SOL    MW4 6213   2.056   2.333   2.567 -0.0603 -0.0510 -0.1402
 1553SOL     OW 6214   1.823   2.409   2.713 -0.0778 -0.1502  0.3437
 1553SOL    HW2 6215   1.833   2.391   2.806 -0.2519 -1.4733  0.1073
 1553SOL    HW3 6216   1.911   2.396   2.677  0.1384  1.0173  0.4225
 1553SOL    MW4 6217   1.836   2.405   2.720 -0.0721 -0.1707  0.3231
 1554SOL     OW 6218   1.832   2.682   2.643 -0.2204 -0.1377  0.3403
 1554SOL    HW2 6219   1.826   2.589   2.663  0.5633 -0.4781 -0.9638
 1554SOL    HW3 6220   1.845   2.686   2.549 -0.4051  1.3065  0.3566
 1554SOL    MW4 6221   1.833   2.670   2.634 -0.1413  0.0081  0.1705
 1555SOL     OW 6222   2.025   2.851   2.751  0.0097 -0.7109  0.0244
 1555SOL    HW2 6223   2.105   2.807   2.721  0.8272 -0.5918  1.9515
 1555SOL    HW3 6224   1.954   2.798   2.716  0.8863 -0.0987 -2.8284
 1555SOL    MW4 6225   2.026   2.838   2.742  0.2332 -0.6144 -0.0978
 1556SOL     OW 6226   2.045   3.121   2.641  0.2949  0.3972 -0.4044
 1556SOL    HW2 6227   2.049   3.034   2.679  0.4198 -0.1405 -1.6304
 1556SOL    HW3 6228   2.054   3.107   2.547 -0.3516  1.6717 -0.6716
 1556SOL    MW4 6229   2.046   3.108   2.633  0.2263  0.4945 -0.6013
 1557SOL     OW 6230   1.788   3.219   2.702 -0.1668  0.1476  0.2209
 1557SOL    HW2 6231   1.804   3.311   2.681  0.3746  0.9804  3.9346
 1557SOL    HW3 6232   1.873   3.176   2.689  0.3414  0.7904  1.2966
 1557SOL    MW4 6233   1.801   3.226   2.698 -0.0285  0.3424  0.8531
 1558SOL     OW 6234   1.803   3.479   2.622  0.2211 -0.0797 -0.1203
 1558SOL    HW2 6235   1.882   3.528   2.646  0.3741  0.1495 -1.0992
 1558SOL    HW3 6236   1.799   3.483   2.527 -1.4264  0.6168 -0.0442
 1558SOL    MW4 6237   1.813   3.486   2.613  0.0238  0.0424 -0.2394
 1559SOL     OW 6238   2.017   3.630   2.708 -0.2846  0.0926  0.0212
 1559SOL    HW2 6239   2.029   3.615   2.802  0.4303 -0.1404 -0.1050
 1559SOL    HW3 6240   2.079   3.571   2.666  0.1443  0.9540 -0.5703
 1559SOL    MW4 6241   2.027   3.620   2.715 -0.1338  0.1755 -0.0732
 1560SOL     OW 6242   2.012   3.900   2.640 -0.0798  0.0639  0.3713
 1560SOL    HW2 6243   1.943   3.947   2.687 -0.8139 -0.1510 -0.4544
 1560SOL    HW3 6244   2.004   3.809   2.670  0.2717  0.1635  0.7637
 1560SOL    MW4 6245   2.002   3.894   2.650 -0.1304  0.0484  0.3142
 1561SOL     OW 6246   1.796   4.017   2.798 -0.0111  0.4532  0.4134
 1561SOL    HW2 6247   1.824   4.097   2.753  0.0281 -1.1160 -2.4476
 1561SOL    HW3 6248   1.730   3.979   2.740  1.3057 -2.5367  0.8178
 1561SOL    MW4 6249   1.791   4.023   2.785  0.1677 -0.1483  0.0892
 1562SOL     OW 6250   1.841   4.273   2.648  0.2958 -0.1890  0.3380
 1562SOL    HW2 6251   1.749   4.293   2.665  0.3813  0.3027  0.2218
 1562SOL    HW3 6252   1.847   4.265   2.553  0.1839 -1.1634  0.4068
 1562SOL    MW4 6253   1.830   4.275   2.638  0.2922 -0.2532  0.3319
 1563SOL     OW 6254   2.041   4.447   2.744  0.6936  0.6134  0.1456
 1563SOL    HW2 6255   1.967   4.402   2.702  0.3358 -0.0579  1.4924
 1563SOL    HW3 6256   2.037   4.536   2.710 -0.4802  0.4642 -0.1191
 1563SOL    MW4 6257   2.031   4.452   2.734  0.4916  0.5050  0.2880
 1564SOL     OW 6258   2.492   4.641   2.646  0.0469 -0.4956  0.0581
 1564SOL    HW2 6259   2.555   4.700   2.687  0.3901 -0.4611 -0.5144
 1564SOL    HW3 6260   2.503   4.656   2.552  0.5885 -1.9408 -0.1139
 1564SOL    MW4 6261   2.501   4.651   2.639  0.1636 -0.6819 -0.0405
 1565SOL     OW 6262   2.271   0.121   2.744  0.6132  0.7024 -0.0382
 1565SOL    HW2 6263   2.267   0.097   2.837  1.9328  1.4106  0.2131
 1565SOL    HW3 6264   2.334   0.060   2.706  1.0732  1.2611 -0.1852
 1565SOL    MW4 6265   2.279   0.110   2.751  0.8478  0.8695 -0.0243
 1566SOL     OW 6266   2.221   0.358   2.633  0.0540  0.1753  0.2177
 1566SOL    HW2 6267   2.266   0.278   2.659  0.8125  0.1308 -1.1781
 1566SOL    HW3 6268   2.212   0.351   2.538  1.5079  2.4147 -0.1394
 1566SOL    MW4 6269   2.226   0.346   2.623  0.3457  0.4649 -0.0138
 1567SOL     OW 6270   2.457   0.502   2.722 -0.1179  0.1722  0.1202
 1567SOL    HW2 6271   2.458   0.593   2.695  0.0067  0.2162  0.2714
 1567SOL    HW3 6272   2.374   0.468   2.688 -0.8411  0.7167  1.2803
 1567SOL    MW4 6273   2.446   0.509   2.714 -0.1969  0.2499  0.2928
 1568SOL     OW 6274   2.466   0.759   2.629  0.1035 -0.2318  0.3386
 1568SOL    HW2 6275   2.404   0.829   2.648  1.4734  1.7038 -2.0026
 1568SOL    HW3 6276   2.465   0.752   2.534  1.3018 -2.2018  0.4473
 1568SOL    MW4 6277   2.458   0.767   2.619  0.4423 -0.2363  0.0443
 1569SOL     OW 6278   2.259   0.925   2.703 -0.1137 -0.0756 -0.2775
 1569SOL    HW2 6279   2.274   0.928   2.797 -0.7799  0.7806 -0.1950
 1569SOL    HW3 6280   2.180   0.872   2.693  0.5316 -1.0140 -0.4245
 1569SOL    MW4 6281   2.250   0.918   2.714 -0.1166 -0.0865 -0.2861
 1570SOL     OW 6282   2.245   1.176   2.575  0.3563  0.4842 -0.0680
 1570SOL    HW2 6283   2.265   1.086   2.600 -0.8278  0.4819  0.8618
 1570SOL    HW3 6284   2.232   1.172   2.480  0.4520 -0.2890 -0.0499
 1570SOL    MW4 6285   2.246   1.163   2.566  0.2124  0.3817  0.0570
 1571SOL     OW 6286   2.486   1.264   2.709 -0.2692 -0.1464  0.2582
 1571SOL    HW2 6287   2.563   1.224   2.668  0.5775  1.0066  0.6848
 1571SOL    HW3 6288   2.411   1.227   2.661  0.5882 -0.6960 -0.6795
 1571SOL    MW4 6289   2.486   1.254   2.697 -0.0446 -0.0669  0.1907
 1572SOL     OW 6290   2.478   1.569   2.658  0.4169  0.3367  0.4494
 1572SOL    HW2 6291   2.397   1.599   2.700  0.3663 -0.5384  1.0089
 1572SOL    HW3 6292   2.476   1.474   2.669  0.6297  0.1303 -1.1618
 1572SOL    MW4 6293   2.467   1.560   2.665  0.4380  0.1940  0.3102
 1573SOL     OW 6294   2.215   1.683   2.736 -0.3537  0.0684  0.2032
 1573SOL    HW2 6295   2.233   1.767   2.693 -1.5294  1.1709  1.7583
 1573SOL    HW3 6296   2.143   1.645   2.685  1.1956 -0.7500 -1.4289
 1573SOL    MW4 6297   2.208   1.689   2.724 -0.3040  0.1059  0.1934
 1574SOL     OW 6298   2.257   1.917   2.599 -0.4005  0.8746  0.1666
 1574SOL    HW2 6299   2.183   1.960   2.641 -1.3338  0.0975 -0.6677
 1574SOL    HW3 6300   2.248   1.939   2.506  0.7670  1.2926  0.1418
 1574SOL    MW4 6301   2.246   1.926   2.592 -0.3695  0.8272  0.0532
 1575SOL     OW 6302   2.482   2.035   2.715 -0.0491  0.2866  0.1034
 1575SOL    HW2 6303   2.478   2.115   2.662  0.8950 -0.3158 -0.8870
 1575SOL    HW3 6304   2.402   1.988   2.693  0.8504 -0.4709 -1.6309
 1575SOL    MW4 6305   2.471   2.039   2.705  0.1941  0.1070 -0.2561
 1576SOL     OW 6306   2.510   2.300   2.619 -0.2526 -0.4909 -0.3052
 1576SOL    HW2 6307   2.578   2.363   2.638 -0.5471 -0.2733  0.0291
 1576SOL    HW3 6308   2.498   2.305   2.524  1.9034 -2.2806 -0.7218
 1576SOL    MW4 6309   2.517   2.309   2.609 -0.0069 -0.6981 -0.3159
 1577SOL     OW 6310   2.283   2.439   2.679  0.2582 -0.3404  0.1837
 1577SOL    HW2 6311   2.282   2.456   2.774 -1.7544 -1.3102  0.3532
 1577SOL    HW3 6312   2.369   2.401   2.663  0.9070  0.5275  1.5003
 1577SOL    MW4 6313   2.294   2.436   2.690  0.0784 -0.3538  0.3798
 1578SOL     OW 6314   2.252   2.732   2.644 -0.6150 -0.1190 -0.4513
 1578SOL    HW2 6315   2.334   2.772   2.675 -0.3458  0.1258 -1.4698
 1578SOL    HW3 6316   2.273   2.639   2.637 -0.4830 -0.0821 -0.5406
 1578SOL    MW4 6317   2.266   2.725   2.647 -0.5622 -0.0820 -0.5975
 1579SOL     OW 6318   2.484   2.843   2.754 -0.7754  0.6586 -0.2988
 1579SOL    HW2 6319   2.567   2.800   2.736 -1.0748  0.3806 -1.0157
 1579SOL    HW3 6320   2.493   2.930   2.715 -1.5271 -0.0390 -2.1003
 1579SOL    MW4 6321   2.496   2.849   2.747 -0.9143  0.5298 -0.6311
 1580SOL     OW 6322   2.477   3.115   2.642  0.1972  0.3631 -0.2643
 1580SOL    HW2 6323   2.402   3.150   2.691  0.6290 -0.1363  0.7747
 1580SOL    HW3 6324   2.455   3.131   2.551 -0.4156  1.7320  0.1065
 1580SOL    MW4 6325   2.464   3.122   2.637  0.1736  0.4780 -0.0784
 1581SOL     OW 6326   2.247   3.248   2.762 -0.1613 -0.3584  0.2999
 1581SOL    HW2 6327   2.257   3.222   2.854  0.8692 -1.0153  0.0046
 1581SOL    HW3 6328   2.174   3.196   2.730  0.0236 -0.7452  0.5148
 1581SOL    MW4 6329   2.238   3.238   2.770 -0.0010 -0.4961  0.2894
 1582SOL     OW 6330   2.255   3.480   2.600 -0.3470  0.0303  0.2293
 1582SOL    HW2 6331   2.336   3.527   2.621  0.7487 -1.5430 -0.3868
 1582SOL    HW3 6332   2.253   3.408   2.663 -0.7361 -0.5555 -0.4536
 1582SOL    MW4 6333   2.265   3.477   2.611 -0.2542 -0.2546  0.0577
 1583SOL     OW 6334   2.468   3.622   2.685 -0.3213  0.3491  0.0018
 1583SOL    HW2 6335   2.451   3.624   2.779  0.6578  2.1394  0.1694
 1583SOL    HW3 6336   2.461   3.714   2.658 -0.8795 -0.1817 -1.7253
 1583SOL    MW4 6337   2.465   3.635   2.693 -0.2656  0.5152 -0.2038
 1584SOL     OW 6338   2.443   3.898   2.628 -0.4014 -0.0587 -0.1496
 1584SOL    HW2 6339   2.520   3.943   2.663 -0.4343 -0.4101  0.3852
 1584SOL    HW3 6340   2.371   3.932   2.680 -0.2404 -1.7920  1.2475
 1584SOL    MW4 6341   2.444   3.908   2.640 -0.3843 -0.3335  0.1054
 1585SOL     OW 6342   2.229   4.032   2.750  0.1679  0.4749 -0.1634
 1585SOL    HW2 6343   2.214   4.023   2.845 -1.2460  1.3294 -0.2874
 1585SOL    HW3 6344   2.151   3.995   2.710  1.1794 -0.7306 -1.0369
 1585SOL    MW4 6345   2.217   4.026   2.757  0.1147  0.4282 -0.2949
 1586SOL     OW 6346   2.235   4.285   2.621  0.6288 -0.2479 -0.1527
 1586SOL    HW2 6347   2.237   4.205   2.674  0.8563 -1.2322 -1.6056
 1586SOL    HW3 6348   2.170   4.340   2.664  1.3899 -0.6823  1.6073
 1586SOL    MW4 6349   2.227   4.282   2.634  0.7594 -0.4349 -0.1121
 1587SOL     OW 6350   2.420   4.404   2.775 -0.6960  0.8056 -0.1355
 1587SOL    HW2 6351   2.348   4.370   2.722  0.7562 -0.8725 -1.0565
 1587SOL    HW3 6352   2.446   4.485   2.731 -1.6556  1.1383 -0.1014
 1587SOL    MW4 6353   2.414   4.411   2.762 -0.6309  0.6280 -0.2527
 1588SOL     OW 6354   2.926   0.002   2.612  0.2900 -0.0791 -0.0478
 1588SOL    HW2 6355   3.007   0.042   2.644 -0.5932  1.7773 -0.1290
 1588SOL    HW3 6356   2.934   0.005   2.517 -0.3546  1.0859 -0.0657
 1588SOL    MW4 6357   2.938   0.007   2.604  0.0885  0.3196 -0.0610
 1589SOL     OW 6358   2.688   0.144   2.738  0.1574 -0.8775  0.2196
 1589SOL    HW2 6359   2.691   0.129   2.832  0.3859  0.7251  0.4772
 1589SOL    HW3 6360   2.766   0.099   2.704  0.8391 -0.2658  0.9645
 1589SOL    MW4 6361   2.699   0.136   2.746  0.2778 -0.5854  0.3521
 1590SOL     OW 6362   2.639   0.380   2.579 -0.1785  0.0506 -0.1013
 1590SOL    HW2 6363   2.642   0.298   2.627 -0.7123 -0.2541 -0.5894
 1590SOL    HW3 6364   2.576   0.434   2.627  1.4145  0.8018  1.1956
 1590SOL    MW4 6365   2.631   0.377   2.592 -0.0386  0.1095  0.0052
 1591SOL     OW 6366   2.897   0.474   2.697  0.2097  0.8859 -0.5805
 1591SOL    HW2 6367   2.892   0.569   2.695 -1.7298  0.8106 -0.1234
 1591SOL    HW3 6368   2.830   0.444   2.636 -0.4698 -0.1927  0.6417
 1591SOL    MW4 6369   2.888   0.482   2.689 -0.1357  0.7336 -0.3588
 1592SOL     OW 6370   2.888   0.756   2.632 -0.0091 -0.1467 -0.0278
 1592SOL    HW2 6371   2.965   0.811   2.648 -0.6314  0.2068  2.0122
 1592SOL    HW3 6372   2.814   0.812   2.658 -0.6877 -1.7131  1.4736
 1592SOL    MW4 6373   2.888   0.771   2.638 -0.1810 -0.3067  0.4394
 1593SOL     OW 6374   2.674   0.915   2.724 -0.0989  0.8828  0.2904
 1593SOL    HW2 6375   2.676   0.889   2.816 -0.1620 -0.6373 -0.1322
 1593SOL    HW3 6376   2.615   0.853   2.682  0.8516  0.8181 -0.9929
 1593SOL    MW4 6377   2.667   0.904   2.730  0.0181  0.6737  0.0653
 1594SOL     OW 6378   2.698   1.152   2.594  0.4972 -0.1935 -0.1451
 1594SOL    HW2 6379   2.772   1.192   2.640  0.4864 -0.4299  0.0799
 1594SOL    HW3 6380   2.687   1.067   2.636 -0.6034  0.2907  0.5592
 1594SOL    MW4 6381   2.706   1.146   2.606  0.3507 -0.1606 -0.0224
 1595SOL     OW 6382   2.900   1.295   2.718 -0.1291  0.2888 -0.3542
 1595SOL    HW2 6383   2.896   1.295   2.814 -1.3937  2.1277 -0.3908
 1595SOL    HW3 6384   2.984   1.254   2.698 -0.3865 -1.2529  1.5021
 1595SOL    MW4 6385   2.910   1.289   2.728 -0.3300  0.3279 -0.1142
 1596SOL     OW 6386   2.940   1.548   2.622  0.2574 -0.0306  0.4246
 1596SOL    HW2 6387   2.862   1.600   2.640 -0.2404 -0.2568 -0.9945
 1596SOL    HW3 6388   2.924   1.464   2.664  0.7216  0.6852  2.0500
 1596SOL    MW4 6389   2.928   1.544   2.630  0.2530  0.0339  0.4516
 1597SOL     OW 6390   2.725   1.694   2.724  0.2413 -0.0385 -0.0670
 1597SOL    HW2 6391   2.715   1.721   2.815  1.7716 -2.0585  0.7379
 1597SOL    HW3 6392   2.653   1.632   2.710  0.7281 -0.6683  0.1680
 1597SOL    MW4 6393   2.714   1.689   2.734  0.5071 -0.3881  0.0701
 1598SOL     OW 6394   2.702   1.925   2.586 -0.1090 -0.4058  0.3065
 1598SOL    HW2 6395   2.719   1.840   2.627 -0.8899 -1.3582 -1.3181
 1598SOL    HW3 6396   2.638   1.967   2.644  2.4383  0.3501  2.7143
 1598SOL    MW4 6397   2.696   1.919   2.599  0.1240 -0.4318  0.4098
 1599SOL     OW 6398   2.910   2.054   2.734  0.1947  0.3227  0.2414
 1599SOL    HW2 6399   2.917   2.141   2.696  0.5419  0.2932  0.2344
 1599SOL    HW3 6400   2.842   2.010   2.682 -0.8796  1.0017  1.0448
 1599SOL    MW4 6401   2.902   2.060   2.722  0.0989  0.4084  0.3464
 1600SOL     OW 6402   2.934   2.292   2.608  0.0815 -0.3933  0.1961
 1600SOL    HW2 6403   3.016   2.337   2.629 -0.7455  1.4485 -0.3565
 1600SOL    HW3 6404   2.866   2.350   2.643 -1.0753 -0.2967 -2.1253
 1600SOL    MW4 6405   2.936   2.306   2.615 -0.1802 -0.1378 -0.1826
 1601SOL     OW 6406   2.719   2.451   2.684  0.2221 -0.2910 -0.2261
 1601SOL    HW2 6407   2.714   2.454   2.780 -0.2254 -0.3587 -0.2462
 1601SOL    HW3 6408   2.722   2.543   2.658  0.3035 -0.2708 -0.1474
 1601SOL    MW4 6409   2.719   2.463   2.693  0.1738 -0.2971 -0.2184
 1602SOL     OW 6410   2.723   2.735   2.649 -0.1869 -0.2085 -0.2266
 1602SOL    HW2 6411   2.801   2.789   2.661 -0.0597 -0.4715  0.1326
 1602SOL    HW3 6412   2.707   2.738   2.554 -1.2896  1.9842 -0.0096
 1602SOL    MW4 6413   2.731   2.743   2.638 -0.3157  0.0463 -0.1507
 1603SOL     OW 6414   2.961   2.851   2.693  0.2009 -0.1002  0.2554
 1603SOL    HW2 6415   2.948   2.849   2.788  1.1354  0.5189  0.4010
 1603SOL    HW3 6416   2.968   2.944   2.672  0.7130 -0.2682 -0.3185
 1603SOL    MW4 6417   2.960   2.863   2.703  0.3917 -0.0405  0.1986
 1604SOL     OW 6418   2.968   3.110   2.637 -0.1345  0.0314  0.1145
 1604SOL    HW2 6419   2.894   3.164   2.665 -1.3225 -1.0176 -0.9153
 1604SOL    HW3 6420   2.965   3.114   2.541 -0.5484 -2.2383  0.0083
 1604SOL    MW4 6421   2.958   3.118   2.628 -0.3462 -0.4063 -0.0353
 1605SOL     OW 6422   2.727   3.236   2.703  0.1504  0.0285 -0.0283
 1605SOL    HW2 6423   2.723   3.327   2.673 -0.8502  0.0808  0.2566
 1605SOL    HW3 6424   2.643   3.198   2.677 -0.6714  0.0287  2.4952
 1605SOL    MW4 6425   2.716   3.243   2.695 -0.0901  0.0355  0.3421
 1606SOL     OW 6426   2.697   3.497   2.614  0.0351  0.2921 -0.3621
 1606SOL    HW2 6427   2.614   3.541   2.633 -0.0177 -0.3746  1.0125
 1606SOL    HW3 6428   2.703   3.497   2.519 -0.6834  1.9329 -0.4239
 1606SOL    MW4 6429   2.687   3.503   2.604 -0.0668  0.4206 -0.1888
 1607SOL     OW 6430   2.918   3.634   2.713  0.2819 -0.4452 -0.1405
 1607SOL    HW2 6431   2.924   3.611   2.806  0.1361 -1.2926 -0.3338
 1607SOL    HW3 6432   2.843   3.584   2.681  0.4224 -0.2694 -0.7486
 1607SOL    MW4 6433   2.909   3.624   2.721  0.2811 -0.5338 -0.2463
 1608SOL     OW 6434   2.918   3.889   2.606  0.2382  0.1960 -0.2648
 1608SOL    HW2 6435   2.989   3.936   2.650  0.8169  1.6284 -2.6260
 1608SOL    HW3 6436   2.912   3.805   2.652  2.9340  0.3696  0.4834
 1608SOL    MW4 6437   2.927   3.884   2.618  0.6704  0.4079 -0.4776
 1609SOL     OW 6438   2.685   3.982   2.722  0.5742  0.4901  0.0078
 1609SOL    HW2 6439   2.675   4.077   2.718  1.2247  0.6227  1.2460
 1609SOL    HW3 6440   2.765   3.965   2.673 -1.0244  0.2788 -2.6199
 1609SOL    MW4 6441   2.694   3.992   2.715  0.4489  0.4797 -0.1755
 1610SOL     OW 6442   2.650   4.255   2.676 -0.4167 -0.2945 -0.0934
 1610SOL    HW2 6443   2.723   4.309   2.704  0.3342  0.2898 -2.9372
 1610SOL    HW3 6444   2.572   4.301   2.708  0.3213  1.1249 -0.2805
 1610SOL    MW4 6445   2.649   4.268   2.684 -0.2203 -0.0300 -0.4933
 1611SOL     OW 6446   2.875   4.427   2.741  0.2172 -0.1788  0.1485
 1611SOL    HW2 6447   2.850   4.441   2.833  0.5787 -0.5466  0.3035
 1611SOL    HW3 6448   2.893   4.514   2.708 -3.4902  0.3956 -0.6137
 1611SOL    MW4 6449   2.874   4.440   2.749 -0.2239 -0.1516  0.0682
 1612SOL     OW 6450   3.380   4.659   2.584 -0.1532  0.0864 -0.6465
 1612SOL    HW2 6451   3.368   4.574   2.626 -0.6292  0.6115  0.2969
 1612SOL    HW3 6452   3.315   4.716   2.625  0.8916  1.1824 -0.4782
 1612SOL    MW4 6453   3.370   4.656   2.595 -0.0782  0.3004 -0.4997
 1613SOL     OW 6454   3.137   0.141   2.700 -0.1991  0.2524 -0.5737
 1613SOL    HW2 6455   3.130   0.125   2.794  1.1057 -0.6472 -0.6164
 1613SOL    HW3 6456   3.139   0.237   2.691 -2.1693  0.3718  0.1580
 1613SOL    MW4 6457   3.136   0.152   2.711 -0.2868  0.1494 -0.4830
 1614SOL     OW 6458   3.160   0.408   2.619  0.5353  0.0434 -0.1102
 1614SOL    HW2 6459   3.074   0.444   2.642  0.1324 -0.2418 -1.1626
 1614SOL    HW3 6460   3.153   0.385   2.527  1.3828 -1.0573  0.0869
 1614SOL    MW4 6461   3.148   0.410   2.610  0.5939 -0.1395 -0.2232
 1615SOL     OW 6462   3.377   0.530   2.751 -0.0621 -0.1200  0.1766
 1615SOL    HW2 6463   3.378   0.623   2.727  0.7758 -0.2653 -0.3498
 1615SOL    HW3 6464   3.310   0.492   2.696 -0.2978  0.1433  0.2793
 1615SOL    MW4 6465   3.368   0.537   2.741  0.0172 -0.1044  0.1209
 1616SOL     OW 6466   3.359   0.788   2.655  0.0855  0.3732 -0.7340
 1616SOL    HW2 6467   3.434   0.842   2.680 -0.5298  0.9654 -0.1629
 1616SOL    HW3 6468   3.374   0.767   2.562  0.7415  0.8237 -0.7316
 1616SOL    MW4 6469   3.371   0.792   2.646  0.0906  0.5108 -0.6585
 1617SOL     OW 6470   3.109   0.893   2.692  0.1606 -0.4144  0.1704
 1617SOL    HW2 6471   3.111   0.903   2.787  0.7600 -0.2389  0.1460
 1617SOL    HW3 6472   3.183   0.836   2.672  0.2833 -0.1216 -0.2243
 1617SOL    MW4 6473   3.119   0.887   2.701  0.2558 -0.3526  0.1149
 1618SOL     OW 6474   3.125   1.171   2.620  0.4720  0.0808  0.2715
 1618SOL    HW2 6475   3.127   1.077   2.633  1.5539 -0.0792 -1.0613
 1618SOL    HW3 6476   3.129   1.183   2.525 -0.5592  1.4462  0.3790
 1618SOL    MW4 6477   3.126   1.161   2.609  0.4787  0.2398  0.1099
 1619SOL     OW 6478   3.355   1.330   2.690  0.1469 -0.6405 -0.1679
 1619SOL    HW2 6479   3.384   1.316   2.780  0.8018 -3.1832 -0.7186
 1619SOL    HW3 6480   3.284   1.267   2.677 -2.1183  1.8660 -0.5061
 1619SOL    MW4 6481   3.350   1.320   2.700 -0.0658 -0.6453 -0.2854
 1620SOL     OW 6482   3.382   1.593   2.626  0.0495  0.0379 -0.0072
 1620SOL    HW2 6483   3.306   1.639   2.662  0.1317 -0.0611  0.2947
 1620SOL    HW3 6484   3.372   1.503   2.658  0.4102  0.0772  0.2107
 1620SOL    MW4 6485   3.370   1.587   2.635  0.1080  0.0300  0.0613
 1621SOL     OW 6486   3.151   1.680   2.728 -0.0481  0.3600  0.1932
 1621SOL    HW2 6487   3.143   1.762   2.679 -1.9132  0.3093  0.3834
 1621SOL    HW3 6488   3.087   1.621   2.687  0.4191 -0.6096  0.8378
 1621SOL    MW4 6489   3.141   1.683   2.716 -0.2327  0.2254  0.3033
 1622SOL     OW 6490   3.133   1.941   2.613 -0.2847  0.2636  0.4203
 1622SOL    HW2 6491   3.201   1.976   2.671 -0.2673 -0.4429  0.8360
 1622SOL    HW3 6492   3.051   1.960   2.658 -0.2587 -0.5121  0.8188
 1622SOL    MW4 6493   3.131   1.948   2.626 -0.2789  0.0682  0.5279
 1623SOL     OW 6494   3.369   2.049   2.730 -0.1085 -0.2414 -0.8898
 1623SOL    HW2 6495   3.366   2.059   2.825 -0.4872 -0.3190 -0.8944
 1623SOL    HW3 6496   3.383   2.138   2.697 -2.0786  0.0983 -0.8641
 1623SOL    MW4 6497   3.370   2.062   2.738 -0.4187 -0.2067 -0.8872
 1624SOL     OW 6498   3.386   2.306   2.618  0.2620 -0.0419 -0.1982
 1624SOL    HW2 6499   3.454   2.365   2.650  1.6175 -1.7708  0.1772
 1624SOL    HW3 6500   3.386   2.317   2.523  0.9151  0.1142 -0.1758
 1624SOL    MW4 6501   3.395   2.315   2.610  0.5271 -0.2496 -0.1457
 1625SOL     OW 6502   3.158   2.427   2.708  0.3068 -0.0136  0.3982
 1625SOL    HW2 6503   3.153   2.511   2.663 -0.4742 -0.6093 -0.6290
 1625SOL    HW3 6504   3.237   2.385   2.674  0.5850  0.2128  0.7607
 1625SOL    MW4 6505   3.167   2.432   2.698  0.2406 -0.0627  0.3107
 1626SOL     OW 6506   3.163   2.687   2.595  0.1845  0.0579  0.1205
 1626SOL    HW2 6507   3.228   2.748   2.632 -0.1439  0.4048  0.1287
 1626SOL    HW3 6508   3.079   2.726   2.618 -0.0473 -1.1521  1.3789
 1626SOL    MW4 6509   3.161   2.700   2.603  0.1104 -0.0558  0.2875
 1627SOL     OW 6510   3.392   2.854   2.724 -0.2147 -0.1386  0.0146
 1627SOL    HW2 6511   3.386   2.845   2.819 -0.6512 -0.8848 -0.0802
 1627SOL    HW3 6512   3.466   2.799   2.699 -0.2367 -0.1162 -0.1009
 1627SOL    MW4 6513   3.401   2.846   2.733 -0.2751 -0.2339 -0.0134
 1628SOL     OW 6514   3.390   3.135   2.653  0.3202  0.9648  0.0453
 1628SOL    HW2 6515   3.406   3.048   2.690  0.9458  0.8122 -0.5690
 1628SOL    HW3 6516   3.388   3.121   2.559 -0.0766  1.5430 -0.0371
 1628SOL    MW4 6517   3.392   3.122   2.646  0.3505  1.0211 -0.0467
 1629SOL     OW 6518   3.168   3.254   2.766 -0.0230 -0.4395 -0.3398
 1629SOL    HW2 6519   3.248   3.236   2.715  0.3246  0.3417 -0.0836
 1629SOL    HW3 6520   3.101   3.201   2.724  0.4175 -0.3469 -1.1815
 1629SOL    MW4 6521   3.170   3.244   2.754  0.0811 -0.3240 -0.4170
 1630SOL     OW 6522   3.130   3.509   2.613  0.1304 -0.1464  0.1149
 1630SOL    HW2 6523   3.121   3.440   2.679  0.4431  0.2582  0.5810
 1630SOL    HW3 6524   3.051   3.562   2.623 -0.5863 -0.9959 -0.9035
 1630SOL    MW4 6525   3.118   3.507   2.623  0.0772 -0.2053  0.0417
 1631SOL     OW 6526   3.349   3.630   2.732  0.1945 -0.4810 -0.7784
 1631SOL    HW2 6527   3.353   3.587   2.817 -0.3298  1.0859  0.0332
 1631SOL    HW3 6528   3.269   3.596   2.692 -1.6973  1.8014  0.9878
 1631SOL    MW4 6529   3.339   3.620   2.738 -0.1242  0.0269 -0.4380
 1632SOL     OW 6530   3.343   3.911   2.669 -0.4129 -0.0857  0.3432
 1632SOL    HW2 6531   3.354   3.822   2.702 -0.6664 -0.0699  0.4718
 1632SOL    HW3 6532   3.359   3.904   2.575 -1.1875 -0.4117  0.2243
 1632SOL    MW4 6533   3.346   3.898   2.661 -0.5486 -0.1264  0.3443
 1633SOL     OW 6534   3.118   4.035   2.743  0.3951  0.5687  0.6473
 1633SOL    HW2 6535   3.125   4.123   2.705 -0.7567  0.1876 -0.4797
 1633SOL    HW3 6536   3.200   3.993   2.719  0.6492  1.1011  0.5579
 1633SOL    MW4 6537   3.130   4.041   2.735  0.2770  0.5889  0.4871
 1634SOL     OW 6538   3.110   4.277   2.619  0.3077 -0.4156  0.5264
 1634SOL    HW2 6539   3.031   4.324   2.645 -0.4680 -0.5251 -1.5353
 1634SOL    HW3 6540   3.096   4.256   2.527  2.3155 -1.3176  0.4024
 1634SOL    MW4 6541   3.097   4.280   2.610  0.4702 -0.5488  0.2379
 1635SOL     OW 6542   3.349   4.414   2.719  0.1418  0.0580 -0.0479
 1635SOL    HW2 6543   3.333   4.420   2.813  0.2645 -0.7499  0.0279
 1635SOL    HW3 6544   3.266   4.381   2.683  0.3496 -0.3742 -0.1305
 1635SOL    MW4 6545   3.336   4.411   2.726  0.1853 -0.1059 -0.0491
 1636SOL     OW 6546   3.829   4.655   2.658  0.3583  0.0293  0.0174
 1636SOL    HW2 6547   3.831   4.572   2.705  1.3699  0.1662  0.2405
 1636SOL    HW3 6548   3.747   4.697   2.685 -0.6686 -1.3476 -0.9124
 1636SOL    MW4 6549   3.819   4.650   2.668  0.3560 -0.1345 -0.0758
 1637SOL     OW 6550   3.584   0.111   2.728  0.0676  0.1478  0.0863
 1637SOL    HW2 6551   3.571   0.203   2.706 -1.0675  0.0513  0.3154
 1637SOL    HW3 6552   3.525   0.063   2.670  1.5075 -0.5417 -0.8614
 1637SOL    MW4 6553   3.575   0.117   2.718  0.1078  0.0441 -0.0088
 1638SOL     OW 6554   3.578   0.382   2.651  0.0837  0.0875 -0.4729
 1638SOL    HW2 6555   3.664   0.421   2.669  0.5516 -1.3809  0.6101
 1638SOL    HW3 6556   3.515   0.443   2.689  0.7678  0.0825  0.6956
 1638SOL    MW4 6557   3.581   0.395   2.658  0.2360 -0.1069 -0.1757
 1639SOL     OW 6558   3.810   0.519   2.718  0.3502 -0.5000 -0.1166
 1639SOL    HW2 6559   3.816   0.514   2.814 -0.1968  1.6359  0.0374
 1639SOL    HW3 6560   3.885   0.467   2.688  0.8195 -0.7946  1.4674
 1639SOL    MW4 6561   3.821   0.511   2.727  0.3402 -0.2571  0.1128
 1640SOL     OW 6562   3.807   0.781   2.630  0.0100 -0.0135 -0.4078
 1640SOL    HW2 6563   3.730   0.809   2.680 -0.0122  0.1729 -0.5480
 1640SOL    HW3 6564   3.814   0.687   2.649  0.8775  0.3448  1.1186
 1640SOL    MW4 6565   3.798   0.772   2.639  0.1218  0.0583 -0.2248
 1641SOL     OW 6566   3.589   0.913   2.727  0.2205 -0.2003 -0.1800
 1641SOL    HW2 6567   3.605   0.921   2.821  0.5361 -0.0643 -0.2446
 1641SOL    HW3 6568   3.590   1.003   2.695 -2.0426 -0.0881  0.0372
 1641SOL    MW4 6569   3.591   0.926   2.735 -0.0365 -0.1675 -0.1597
 1642SOL     OW 6570   3.587   1.173   2.620  0.7503  0.1223 -0.4249
 1642SOL    HW2 6571   3.659   1.212   2.670  0.8044 -0.2451 -0.2131
 1642SOL    HW3 6572   3.510   1.222   2.647  0.7798 -0.0679  0.0190
 1642SOL    MW4 6573   3.587   1.185   2.630  0.7613  0.0488 -0.3386
 1643SOL     OW 6574   3.825   1.269   2.731  0.0391 -0.1184  0.2199
 1643SOL    HW2 6575   3.912   1.240   2.704  0.8191  1.5762  0.8514
 1643SOL    HW3 6576   3.809   1.347   2.679 -1.6162 -1.0893 -0.7470
 1643SOL    MW4 6577   3.835   1.275   2.721 -0.0763 -0.0228  0.1760
 1644SOL     OW 6578   3.814   1.518   2.622 -0.1599 -0.3653  0.5946
 1644SOL    HW2 6579   3.893   1.565   2.652 -0.4289  0.9380 -0.6951
 1644SOL    HW3 6580   3.742   1.574   2.649 -0.4369  0.5733 -1.9827
 1644SOL    MW4 6581   3.815   1.532   2.630 -0.2320 -0.0696  0.0842
 1645SOL     OW 6582   3.637   1.715   2.688  0.2243  0.0550 -0.3821
 1645SOL    HW2 6583   3.654   1.803   2.655 -0.9959  0.3904 -0.1457
 1645SOL    HW3 6584   3.565   1.683   2.635 -1.0279  0.1855  1.2150
 1645SOL    MW4 6585   3.630   1.722   2.677 -0.1020  0.1166 -0.1402
 1646SOL     OW 6586   3.624   1.992   2.622 -0.2912 -0.4087  0.5652
 1646SOL    HW2 6587   3.539   2.013   2.661 -0.7476 -1.8173  0.3320
 1646SOL    HW3 6588   3.607   1.989   2.528  0.5263  1.6407  0.3036
 1646SOL    MW4 6589   3.611   1.995   2.615 -0.2437 -0.3242  0.5000
 1647SOL     OW 6590   3.846   2.072   2.744 -0.0728 -0.1097  0.2079
 1647SOL    HW2 6591   3.912   2.013   2.707 -0.7167  0.4551 -1.8945
 1647SOL    HW3 6592   3.763   2.042   2.706 -0.7083  0.6946  0.9403
 1647SOL    MW4 6593   3.844   2.060   2.734 -0.2415  0.0708  0.0272
 1648SOL     OW 6594   3.808   2.325   2.627  0.1210 -0.6731  0.3908
 1648SOL    HW2 6595   3.817   2.234   2.656 -0.8668 -0.6924  0.6595
 1648SOL    HW3 6596   3.788   2.318   2.534 -0.9171 -0.7784  0.6130
 1648SOL    MW4 6597   3.806   2.312   2.618 -0.1462 -0.6895  0.4556
 1649SOL     OW 6598   3.600   2.467   2.730 -0.0991  0.0975  0.5312
 1649SOL    HW2 6599   3.602   2.470   2.825  0.1194  0.2893  0.5212
 1649SOL    HW3 6600   3.683   2.426   2.705 -0.8221 -1.3430  0.4771
 1649SOL    MW4 6601   3.611   2.462   2.739 -0.1659 -0.0672  0.5226
 1650SOL     OW 6602   3.627   2.725   2.635 -0.2821  0.1443  0.1023
 1650SOL    HW2 6603   3.619   2.633   2.660  0.8771  0.2026  0.7222
 1650SOL    HW3 6604   3.612   2.726   2.540  2.3110 -1.0672 -0.3714
 1650SOL    MW4 6605   3.624   2.713   2.626  0.2131 -0.0079  0.1216
 1651SOL     OW 6606   3.823   2.875   2.785  0.2440 -0.0028  0.0847
 1651SOL    HW2 6607   3.907   2.853   2.746 -0.3502  0.5840 -1.5761
 1651SOL    HW3 6608   3.759   2.824   2.736 -0.4527  0.1842  0.7818
 1651SOL    MW4 6609   3.826   2.866   2.774  0.0737  0.0994 -0.0424
 1652SOL     OW 6610   3.844   3.125   2.668  0.0277  0.0158  0.5388
 1652SOL    HW2 6611   3.776   3.178   2.710  0.3178  1.2650 -0.5193
 1652SOL    HW3 6612   3.836   3.039   2.709 -2.0508  0.1933  0.5818
 1652SOL    MW4 6613   3.834   3.121   2.679 -0.2081  0.2038  0.4048
 1653SOL     OW 6614   3.614   3.308   2.728 -0.0547  0.6306  0.1951
 1653SOL    HW2 6615   3.611   3.389   2.676 -1.3594 -0.0200 -0.7780
 1653SOL    HW3 6616   3.547   3.252   2.688 -1.1973  0.1724  2.6884
 1653SOL    MW4 6617   3.605   3.312   2.716 -0.3777  0.4845  0.3955
 1654SOL     OW 6618   3.612   3.581   2.598 -0.2154  0.4226 -0.2900
 1654SOL    HW2 6619   3.681   3.610   2.658  1.3609  1.0617 -2.3373
 1654SOL    HW3 6620   3.531   3.604   2.642  0.8979  0.5957  1.7336
 1654SOL    MW4 6621   3.611   3.588   2.611  0.1395  0.5300 -0.2930
 1655SOL     OW 6622   3.809   3.635   2.768  0.4282  0.1502  0.1808
 1655SOL    HW2 6623   3.878   3.589   2.720  0.0687  0.2222 -0.4051
 1655SOL    HW3 6624   3.805   3.721   2.728  0.2591  0.2777  0.4726
 1655SOL    MW4 6625   3.818   3.640   2.756  0.3583  0.1764  0.1421
 1656SOL     OW 6626   3.799   3.876   2.636 -0.0303  0.7291  0.2078
 1656SOL    HW2 6627   3.882   3.916   2.664  0.4224 -1.1555  1.7007
 1656SOL    HW3 6628   3.731   3.931   2.674  0.5265  2.1691 -0.8433
 1656SOL    MW4 6629   3.801   3.888   2.644  0.1028  0.6704  0.2661
 1657SOL     OW 6630   3.589   4.015   2.749  0.3148  0.1235 -0.3896
 1657SOL    HW2 6631   3.592   4.099   2.704  0.3495  0.6533  0.5932
 1657SOL    HW3 6632   3.500   3.983   2.733 -0.3614  1.2872  0.8981
 1657SOL    MW4 6633   3.577   4.022   2.741  0.2301  0.3467 -0.0901
 1658SOL     OW 6634   3.590   4.268   2.654  0.2118 -0.2318  0.0941
 1658SOL    HW2 6635   3.522   4.327   2.685 -1.5142 -1.7836 -0.6471
 1658SOL    HW3 6636   3.591   4.278   2.559  0.9354 -0.3212  0.0818
 1658SOL    MW4 6637   3.581   4.277   2.645  0.0796 -0.4487 -0.0055
 1659SOL     OW 6638   3.817   4.410   2.777  0.0978  0.3200 -0.3723
 1659SOL    HW2 6639   3.893   4.362   2.745 -0.6403 -1.1149  0.0037
 1659SOL    HW3 6640   3.742   4.363   2.741 -0.6677  0.4644  1.0053
 1659SOL    MW4 6641   3.817   4.398   2.768 -0.1001  0.1497 -0.1407
 1660SOL     OW 6642   4.305   4.650   2.684  0.1442 -0.2876  0.1965
 1660SOL    HW2 6643   4.237   4.700   2.729  1.1402  0.0296  1.4031
 1660SOL    HW3 6644   4.386   4.697   2.705  0.8001 -1.0334 -0.6634
 1660SOL    MW4 6645   4.307   4.663   2.693  0.3629 -0.3438  0.2420
 1661SOL     OW 6646   4.070   0.117   2.746  0.5102 -0.5021 -0.5759
 1661SOL    HW2 6647   4.055   0.124   2.841  1.5727 -2.1607 -0.2562
 1661SOL    HW3 6648   3.994   0.068   2.713  0.8427 -1.1867 -0.3416
 1661SOL    MW4 6649   4.058   0.111   2.754  0.6943 -0.8113 -0.5028
 1662SOL     OW 6650   4.036   0.369   2.637  0.2906 -0.0847 -0.9027
 1662SOL    HW2 6651   4.048   0.281   2.672 -0.6651  0.5830  1.1681
 1662SOL    HW3 6652   4.025   0.356   2.543  0.9060 -2.1039 -0.7144
 1662SOL    MW4 6653   4.036   0.356   2.629  0.2456 -0.2630 -0.6049
 1663SOL     OW 6654   4.254   0.496   2.746  0.1563  0.0163  0.3900
 1663SOL    HW2 6655   4.185   0.447   2.701  0.5680  0.3914 -0.6765
 1663SOL    HW3 6656   4.335   0.467   2.703  0.7775 -1.1374  2.2727
 1663SOL    MW4 6657   4.255   0.485   2.734  0.2928 -0.0864  0.4976
 1664SOL     OW 6658   4.257   0.767   2.671 -0.2168  0.2017  0.7135
 1664SOL    HW2 6659   4.263   0.675   2.695 -0.0213 -0.0921 -0.4281
 1664SOL    HW3 6660   4.266   0.768   2.576 -0.4591  1.3786  0.6894
 1664SOL    MW4 6661   4.259   0.755   2.662 -0.2236  0.3183  0.5596
 1665SOL     OW 6662   4.040   0.896   2.778  0.4772  0.0600  0.7949
 1665SOL    HW2 6663   4.108   0.840   2.742  0.1609 -0.7294  1.4102
 1665SOL    HW3 6664   3.958   0.861   2.742  0.3340  0.5837  0.5983
 1665SOL    MW4 6665   4.038   0.884   2.768  0.4168  0.0250  0.8502
 1666SOL     OW 6666   4.065   1.156   2.642 -0.2044  0.0454 -0.1303
 1666SOL    HW2 6667   4.136   1.205   2.684 -0.4352 -0.2541  0.6083
 1666SOL    HW3 6668   4.066   1.071   2.685 -0.4286 -0.2727 -0.7481
 1666SOL    MW4 6669   4.075   1.151   2.653 -0.2642 -0.0360 -0.1144
 1667SOL     OW 6670   4.272   1.323   2.782  0.3966  0.1441 -0.4883
 1667SOL    HW2 6671   4.294   1.414   2.758  1.4398  0.3848  1.3207
 1667SOL    HW3 6672   4.324   1.270   2.722  1.1635  0.7480 -0.3690
 1667SOL    MW4 6673   4.282   1.328   2.771  0.6351  0.2555 -0.2339
 1668SOL     OW 6674   4.304   1.577   2.667  0.3047 -0.3701 -0.5891
 1668SOL    HW2 6675   4.395   1.597   2.691 -0.6420  1.1542  2.0212
 1668SOL    HW3 6676   4.303   1.578   2.572  2.8758  0.2762 -0.6477
 1668SOL    MW4 6677   4.316   1.580   2.658  0.5183 -0.0838 -0.2525
 1669SOL     OW 6678   4.045   1.675   2.711  0.1833 -0.5342  0.1277
 1669SOL    HW2 6679   4.046   1.684   2.806  0.1841  0.4823  0.0401
 1669SOL    HW3 6680   4.129   1.633   2.690  1.2417  1.3743  0.3919
 1669SOL    MW4 6681   4.056   1.670   2.721  0.3228 -0.1483  0.1514
 1670SOL     OW 6682   4.084   1.930   2.629 -0.2094  0.2767  0.3230
 1670SOL    HW2 6683   4.147   1.967   2.690  0.6985 -0.3382 -0.2375
 1670SOL    HW3 6684   4.077   1.838   2.655 -0.7654  0.3091  0.2926
 1670SOL    MW4 6685   4.091   1.922   2.641 -0.1626  0.1999  0.2451
 1671SOL     OW 6686   4.255   2.055   2.804  0.2976 -0.4011 -0.1007
 1671SOL    HW2 6687   4.239   2.139   2.761  1.0126  0.3052  0.9697
 1671SOL    HW3 6688   4.330   2.018   2.757  1.5268  0.6923  0.9564
 1671SOL    MW4 6689   4.263   2.061   2.792  0.5541 -0.1638  0.1798
 1672SOL     OW 6690   4.248   2.322   2.686 -0.2017  0.0373 -0.2252
 1672SOL    HW2 6691   4.173   2.381   2.677  1.0803  1.4907 -1.8882
 1672SOL    HW3 6692   4.262   2.288   2.597  1.3388  0.1001 -0.0223
 1672SOL    MW4 6693   4.240   2.325   2.673  0.1712  0.2375 -0.4177
 1673SOL     OW 6694   4.016   2.473   2.718 -0.1104  0.0906  0.5348
 1673SOL    HW2 6695   4.021   2.448   2.810 -1.3046 -0.5807  0.4186
 1673SOL    HW3 6696   3.955   2.411   2.679  1.0854 -0.2086 -0.9088
 1673SOL    MW4 6697   4.009   2.462   2.725 -0.1101 -0.0370  0.3290
 1674SOL     OW 6698   4.049   2.743   2.611 -0.3000  0.2055 -0.4415
 1674SOL    HW2 6699   4.132   2.772   2.648 -0.6364  0.3443  0.2323
 1674SOL    HW3 6700   4.037   2.654   2.647 -0.6956  0.3939 -0.0972
 1674SOL    MW4 6701   4.058   2.735   2.621 -0.3967  0.2487 -0.3073
 1675SOL     OW 6702   4.312   2.838   2.702  0.0651  0.2326 -0.2307
 1675SOL    HW2 6703   4.298   2.839   2.796 -0.5893 -0.6750 -0.3170
 1675SOL    HW3 6704   4.305   2.930   2.676  1.4688  0.6492  0.7717
 1675SOL    MW4 6705   4.309   2.851   2.711  0.1640  0.1676 -0.1097
 1676SOL     OW 6706   4.276   3.092   2.621 -0.7440 -0.1705  0.0649
 1676SOL    HW2 6707   4.201   3.144   2.651 -1.7064 -1.5486  0.0718
 1676SOL    HW3 6708   4.262   3.083   2.527 -1.5722 -1.9621  0.3379
 1676SOL    MW4 6709   4.264   3.098   2.613 -0.9804 -0.5884  0.1020
 1677SOL     OW 6710   4.087   3.254   2.743  0.6147 -0.6587  0.0284
 1677SOL    HW2 6711   4.066   3.346   2.726 -0.9788 -0.7822  1.2126
 1677SOL    HW3 6712   4.004   3.208   2.733  1.6252 -2.1408 -1.6131
 1677SOL    MW4 6713   4.073   3.260   2.740  0.5383 -0.8707 -0.0317
 1678SOL     OW 6714   4.047   3.520   2.637  0.1066 -0.1003  0.0183
 1678SOL    HW2 6715   4.118   3.570   2.678 -0.5011  1.7136 -1.0659
 1678SOL    HW3 6716   4.077   3.508   2.546 -0.6187 -0.0132 -0.2303
 1678SOL    MW4 6717   4.061   3.525   2.630 -0.0691  0.1504 -0.1576
 1679SOL     OW 6718   4.249   3.656   2.741 -0.0684 -0.1394  0.2882
 1679SOL    HW2 6719   4.252   3.674   2.835 -3.1773 -2.5891  0.9082
 1679SOL    HW3 6720   4.323   3.598   2.726  1.4969  1.6434  0.8511
 1679SOL    MW4 6721   4.259   3.651   2.751 -0.2723 -0.2275  0.4444
 1680SOL     OW 6722   4.252   3.917   2.641 -0.4156 -0.4162 -0.0636
 1680SOL    HW2 6723   4.243   3.823   2.656  0.1205 -0.6897 -1.3661
 1680SOL    HW3 6724   4.340   3.938   2.673 -0.1884 -0.5312 -0.6180
 1680SOL    MW4 6725   4.262   3.908   2.647 -0.3152 -0.4671 -0.3085
 1681SOL     OW 6726   4.011   4.028   2.748  0.1277 -0.1666 -0.3036
 1681SOL    HW2 6727   4.022   4.025   2.843  0.0599 -3.3247 -0.3238
 1681SOL    HW3 6728   4.093   3.992   2.714  0.3220  1.3392 -1.4664
 1681SOL    MW4 6729   4.023   4.023   2.756  0.1445 -0.3848 -0.4597
 1682SOL     OW 6730   4.018   4.283   2.664  0.0618 -0.4501  0.2688
 1682SOL    HW2 6731   4.004   4.194   2.697  0.4225 -0.7198 -0.2885
 1682SOL    HW3 6732   4.036   4.271   2.571  2.0749  0.0351  0.5778
 1682SOL    MW4 6733   4.018   4.270   2.656  0.3748 -0.4220  0.2360
 1683SOL     OW 6734   4.289   4.384   2.753 -0.4701  0.5804  0.2889
 1683SOL    HW2 6735   4.197   4.356   2.751 -0.3024  0.0639 -0.2080
 1683SOL    HW3 6736   4.287   4.476   2.726 -0.8033  0.4691 -0.0605
 1683SOL    MW4 6737   4.277   4.392   2.749 -0.4916  0.4973  0.1774
 1684SOL     OW 6738   0.184   4.624   3.124  0.7076 -0.4035 -0.0056
 1684SOL    HW2 6739   0.191   4.644   3.217 -1.3503 -1.4593  0.4172
 1684SOL    HW3 6740   0.114   4.681   3.092  0.4945 -0.9844 -0.5929
 1684SOL    MW4 6741   0.176   4.634   3.132  0.4079 -0.6194 -0.0272
 1685SOL     OW 6742   0.016   0.148   3.028  0.1872  0.7582 -0.1558
 1685SOL    HW2 6743  -0.068   0.107   3.049  0.8007 -0.2906  0.3154
 1685SOL    HW3 6744   0.014   0.233   3.070 -0.5620  0.6537  0.0128
 1685SOL    MW4 6745   0.005   0.153   3.036  0.1693  0.6060 -0.0713
 1686SOL     OW 6746   4.483   0.389   3.131  0.5260  0.0615  0.5398
 1686SOL    HW2 6747   4.474   0.379   3.226 -0.2111 -1.2957  0.3476
 1686SOL    HW3 6748   4.403   0.432   3.104  0.1235 -0.7670  0.3811
 1686SOL    MW4 6749   4.471   0.393   3.140  0.3757 -0.2269  0.4935
 1687SOL     OW 6750   0.237   0.495   3.025 -0.6314  0.0843  0.2114
 1687SOL    HW2 6751   0.311   0.436   3.038 -0.7240 -0.3963 -1.2815
 1687SOL    HW3 6752   0.161   0.444   3.052 -0.6096 -0.1276 -0.1215
 1687SOL    MW4 6753   0.237   0.481   3.030 -0.6407 -0.0071 -0.0296
 1688SOL     OW 6754   0.233   0.753   3.124  0.0872 -0.0578 -0.1991
 1688SOL    HW2 6755   0.217   0.761   3.218  0.3416  0.0793 -0.1670
 1688SOL    HW3 6756   0.222   0.659   3.106 -2.4085  0.2462 -0.4907
 1688SOL    MW4 6757   0.229   0.742   3.134 -0.2085  0.0004 -0.2332
 1689SOL     OW 6758   4.485   0.910   3.033 -0.1869  0.1496 -0.1242
 1689SOL    HW2 6759   4.559   0.853   3.052 -0.9324 -0.7001  0.2826
 1689SOL    HW3 6760   4.492   0.929   2.939  1.4061  1.3344  0.2174
 1689SOL    MW4 6761   4.496   0.905   3.023 -0.0751  0.1938 -0.0255
 1690SOL     OW 6762   0.004   1.151   3.164 -0.2749 -0.0359  0.4656
 1690SOL    HW2 6763  -0.066   1.201   3.122  0.3768  0.1056 -0.4497
 1690SOL    HW3 6764   0.001   1.065   3.121 -1.0940 -0.6443  1.7152
 1690SOL    MW4 6765  -0.006   1.146   3.153 -0.2970 -0.0975  0.5100
 1691SOL     OW 6766   0.246   1.283   3.034  0.0796 -0.1872 -0.2157
 1691SOL    HW2 6767   0.167   1.239   3.067  1.2546 -1.1025  1.4620
 1691SOL    HW3 6768   0.236   1.280   2.939 -1.5533 -0.9697 -0.0528
 1691SOL    MW4 6769   0.234   1.277   3.026  0.0192 -0.4113  0.0272
 1692SOL     OW 6770   0.240   1.542   3.105 -0.4876  0.0987  0.0237
 1692SOL    HW2 6771   0.162   1.591   3.080 -0.4764  0.4841  0.7223
 1692SOL    HW3 6772   0.227   1.456   3.066 -0.0442  0.9343 -2.0661
 1692SOL    MW4 6773   0.228   1.537   3.096 -0.4277  0.2598 -0.1595
 1693SOL     OW 6774   0.005   1.682   3.032  0.0338 -0.3333 -0.2207
 1693SOL    HW2 6775  -0.065   1.640   3.081  0.1870 -0.8744 -0.4645
 1693SOL    HW3 6776   0.007   1.772   3.065 -0.9162 -0.2546 -0.3606
 1693SOL    MW4 6777  -0.004   1.689   3.043 -0.0714 -0.3943 -0.2711
 1694SOL     OW 6778   4.477   1.914   3.167 -0.5908 -0.3987 -0.3947
 1694SOL    HW2 6779   4.392   1.947   3.137 -1.7767  0.1410  3.3580
 1694SOL    HW3 6780   4.541   1.977   3.131 -2.0345  0.8155 -0.8889
 1694SOL    MW4 6781   4.475   1.927   3.158 -0.9378 -0.1674  0.0353
 1695SOL     OW 6782   0.170   2.058   2.989  0.2804 -0.1241  0.0092
 1695SOL    HW2 6783   0.193   2.142   3.028  0.4096  0.0306 -0.3941
 1695SOL    HW3 6784   0.176   2.073   2.894  2.3003 -1.1459 -0.0476
 1695SOL    MW4 6785   0.174   2.071   2.981  0.5639 -0.2382 -0.0515
 1696SOL     OW 6786   0.250   2.311   3.130  0.1584  0.3106  0.2634
 1696SOL    HW2 6787   0.259   2.318   3.225 -0.9540  2.1353  0.2612
 1696SOL    HW3 6788   0.323   2.363   3.096 -0.5400  1.2069  0.1340
 1696SOL    MW4 6789   0.261   2.319   3.138 -0.0805  0.6697  0.2458
 1697SOL     OW 6790   0.008   2.424   3.034 -0.0606  0.0309  0.4671
 1697SOL    HW2 6791   0.003   2.513   3.069 -2.1621  0.4296 -0.7513
 1697SOL    HW3 6792   0.088   2.388   3.072  0.0691  1.9420  2.1183
 1697SOL    MW4 6793   0.018   2.431   3.044 -0.3214  0.3357  0.5243
 1698SOL     OW 6794   0.003   2.686   3.115  0.3767 -0.1099 -0.1697
 1698SOL    HW2 6795   0.003   2.694   3.210 -0.6665  1.7868 -0.3112
 1698SOL    HW3 6796   0.069   2.749   3.086  0.0082  0.0119 -0.7436
 1698SOL    MW4 6797   0.012   2.696   3.124  0.1904  0.1564 -0.2644
 1699SOL     OW 6798   0.199   2.862   3.002 -0.0441 -0.1216 -0.6341
 1699SOL    HW2 6799   0.281   2.832   3.040  0.1515  1.0737 -0.0969
 1699SOL    HW3 6800   0.214   2.860   2.907  1.2970  1.9914 -0.4936
 1699SOL    MW4 6801   0.212   2.858   2.994  0.1586  0.3147 -0.5445
 1700SOL     OW 6802   0.164   3.097   3.143 -0.2000 -0.2304  0.1576
 1700SOL    HW2 6803   0.096   3.137   3.088 -0.3753 -0.6778  0.0454
 1700SOL    HW3 6804   0.190   3.019   3.096  0.1628 -0.2350  0.3648
 1700SOL    MW4 6805   0.158   3.092   3.130 -0.1753 -0.2902  0.1700
 1701SOL     OW 6806   4.463   3.238   3.010 -0.1383 -0.2490  0.0974
 1701SOL    HW2 6807   4.390   3.181   3.031 -1.8430  1.9822  0.4699
 1701SOL    HW3 6808   4.471   3.234   2.915 -2.6034  1.6038 -0.2434
 1701SOL    MW4 6809   4.455   3.230   3.001 -0.6890  0.2897  0.1016
 1702SOL     OW 6810   4.471   3.497   3.129 -0.0639 -0.1766  0.1314
 1702SOL    HW2 6811   4.395   3.553   3.112  0.6088  0.4201 -0.9692
 1702SOL    HW3 6812   4.454   3.418   3.077 -0.2686 -0.3597  0.4679
 1702SOL    MW4 6813   4.459   3.494   3.120 -0.0024 -0.1221  0.0305
 1703SOL     OW 6814   0.204   3.611   3.020 -0.1612 -0.2218  0.1894
 1703SOL    HW2 6815   0.201   3.704   3.041  0.3063 -0.3369  0.7783
 1703SOL    HW3 6816   0.123   3.575   3.058 -0.9578  0.1546 -1.1149
 1703SOL    MW4 6817   0.193   3.618   3.028 -0.2046 -0.1869  0.0947
 1704SOL     OW 6818   0.203   3.872   3.124  0.0964 -0.2654  0.9187
 1704SOL    HW2 6819   0.190   3.884   3.218  0.6927  0.8431  0.8636
 1704SOL    HW3 6820   0.271   3.935   3.100 -0.9437  0.3642 -0.4976
 1704SOL    MW4 6821   0.210   3.882   3.133  0.0378 -0.0360  0.7248
 1705SOL     OW 6822   4.484   4.027   3.023 -0.4617 -0.0756 -0.4070
 1705SOL    HW2 6823   4.561   3.976   3.049 -1.0810 -0.8746 -0.1120
 1705SOL    HW3 6824   4.489   4.030   2.927  0.1714  0.2390 -0.3608
 1705SOL    MW4 6825   4.495   4.020   3.014 -0.4599 -0.1392 -0.3619
 1706SOL     OW 6826   4.484   4.271   3.154 -0.4473  0.4524  0.2212
 1706SOL    HW2 6827   4.477   4.257   3.249  1.0616 -0.8052  0.1675
 1706SOL    HW3 6828   4.472   4.185   3.116  1.2992  0.5374 -0.5791
 1706SOL    MW4 6829   4.482   4.258   3.162 -0.0181  0.2975  0.1085
 1707SOL     OW 6830   0.221   4.368   3.030 -0.0877  0.4302  0.4367
 1707SOL    HW2 6831   0.139   4.322   3.049  0.1615 -0.2993 -0.2044
 1707SOL    HW3 6832   0.206   4.458   3.059 -0.8512  0.1246  1.0154
 1707SOL    MW4 6833   0.208   4.373   3.036 -0.1555  0.2928  0.4282
 1708SOL     OW 6834   0.652   4.651   3.161  0.6535 -0.6033  0.2260
 1708SOL    HW2 6835   0.650   4.557   3.141  1.2491 -0.4825 -0.3961
 1708SOL    HW3 6836   0.582   4.688   3.108 -0.5040 -0.8965  1.5259
 1708SOL    MW4 6837   0.642   4.643   3.152  0.5794 -0.6261  0.3154
 1709SOL     OW 6838   0.429   0.087   3.037  0.2846  0.0339  0.2203
 1709SOL    HW2 6839   0.445   0.176   3.068  0.8402 -0.5979  1.7716
 1709SOL    HW3 6840   0.338   0.069   3.060  0.6808 -0.4154  1.4614
 1709SOL    MW4 6841   0.419   0.096   3.044  0.4102 -0.1087  0.5884
 1710SOL     OW 6842   0.471   0.347   3.105  0.0743  0.4648 -0.3244
 1710SOL    HW2 6843   0.467   0.358   3.200 -0.3938  0.5204 -0.3511
 1710SOL    HW3 6844   0.547   0.399   3.079 -2.0088  3.5695 -0.4249
 1710SOL    MW4 6845   0.481   0.355   3.114 -0.2623  0.8817 -0.3409
 1711SOL     OW 6846   0.687   0.529   3.055 -0.6176 -0.0634  0.3678
 1711SOL    HW2 6847   0.772   0.484   3.057 -0.9337 -0.7004 -0.2819
 1711SOL    HW3 6848   0.706   0.616   3.088  0.3435 -0.1269  0.0216
 1711SOL    MW4 6849   0.701   0.534   3.059 -0.5326 -0.1559  0.2365
 1712SOL     OW 6850   0.727   0.793   3.152  0.2068  0.2082  0.5458
 1712SOL    HW2 6851   0.712   0.775   3.245 -1.4808 -0.3811  0.1809
 1712SOL    HW3 6852   0.640   0.808   3.116  0.7347 -0.6967 -1.1678
 1712SOL    MW4 6853   0.714   0.793   3.159  0.0538  0.0110  0.2716
 1713SOL     OW 6854   0.473   0.855   3.023 -0.3735 -0.1011 -0.3340
 1713SOL    HW2 6855   0.393   0.818   3.061 -0.3944 -0.7360 -0.9908
 1713SOL    HW3 6856   0.455   0.862   2.929  1.0973 -2.2735 -0.8133
 1713SOL    MW4 6857   0.460   0.851   3.016 -0.1822 -0.4715 -0.4838
 1714SOL     OW 6858   0.455   1.109   3.152 -0.0968  0.1027  0.0329
 1714SOL    HW2 6859   0.477   1.030   3.103  1.3454  0.5841 -0.1452
 1714SOL    HW3 6860   0.381   1.147   3.105  1.0236  0.3595 -1.5794
 1714SOL    MW4 6861   0.448   1.104   3.139  0.2412  0.2000 -0.2031
 1715SOL     OW 6862   0.673   1.257   3.048 -0.2358  0.0417 -0.4646
 1715SOL    HW2 6863   0.756   1.232   3.089 -0.8146 -1.0360  0.0891
 1715SOL    HW3 6864   0.608   1.205   3.094 -1.1197  0.2077 -1.5162
 1715SOL    MW4 6865   0.676   1.247   3.060 -0.4288 -0.0786 -0.5302
 1716SOL     OW 6866   0.670   1.529   3.115 -0.0515 -0.1342 -0.0248
 1716SOL    HW2 6867   0.699   1.535   3.206 -0.5912  0.3712  0.1158
 1716SOL    HW3 6868   0.674   1.435   3.096  1.0326 -0.1489  0.1933
 1716SOL    MW4 6869   0.675   1.517   3.125  0.0203 -0.0695  0.0226
 1717SOL     OW 6870   0.456   1.666   3.001 -0.7801  0.0813  0.3803
 1717SOL    HW2 6871   0.529   1.635   3.054 -0.3434 -0.3795 -0.4634
 1717SOL    HW3 6872   0.386   1.604   3.018 -0.4415 -0.4290 -0.0380
 1717SOL    MW4 6873   0.457   1.653   3.010 -0.6778 -0.0468  0.2139
 1718SOL     OW 6874   0.408   1.920   3.073  0.4280  0.5492 -0.2126
 1718SOL    HW2 6875   0.417   1.829   3.045 -0.8887 -0.1357  1.4827
 1718SOL    HW3 6876   0.329   1.952   3.028 -0.0215  0.3528  0.4332
 1718SOL    MW4 6877   0.399   1.913   3.064  0.1950  0.4330  0.0963
 1719SOL     OW 6878   0.637   2.082   2.975  0.2756  0.6387  0.3732
 1719SOL    HW2 6879   0.700   2.035   3.029  1.5375  2.0007  0.1064
 1719SOL    HW3 6880   0.557   2.029   2.979  1.3466 -0.9410  0.9443
 1719SOL    MW4 6881   0.635   2.069   2.983  0.5834  0.6101  0.4134
 1720SOL     OW 6882   0.662   2.343   3.092 -0.6202 -0.0314  0.1459
 1720SOL    HW2 6883   0.646   2.337   3.186  1.7725 -0.9756  0.5335
 1720SOL    HW3 6884   0.650   2.253   3.061  1.2680 -0.2767  0.0483
 1720SOL    MW4 6885   0.658   2.330   3.101 -0.0554 -0.1886  0.1841
 1721SOL     OW 6886   0.437   2.475   3.025 -0.0248 -0.1650 -0.0048
 1721SOL    HW2 6887   0.511   2.419   3.050  1.4454  1.4556 -0.6094
 1721SOL    HW3 6888   0.436   2.473   2.930  0.6494  1.5644 -0.0744
 1721SOL    MW4 6889   0.447   2.467   3.016  0.2581  0.2770 -0.0939
 1722SOL     OW 6890   0.434   2.739   3.128 -0.1880 -0.0147  0.0038
 1722SOL    HW2 6891   0.506   2.781   3.081 -0.0850 -0.2311 -0.0284
 1722SOL    HW3 6892   0.437   2.647   3.101  0.9369 -0.5101  1.7644
 1722SOL    MW4 6893   0.444   2.733   3.118 -0.0260 -0.1085  0.2320
 1723SOL     OW 6894   0.660   2.857   3.021  0.0439 -0.2437 -0.2902
 1723SOL    HW2 6895   0.740   2.814   3.048 -0.1491  0.3043  1.1812
 1723SOL    HW3 6896   0.669   2.947   3.052 -0.8100  0.0186 -0.7737
 1723SOL    MW4 6897   0.672   2.864   3.028 -0.0942 -0.1366 -0.1600
 1724SOL     OW 6898   0.683   3.120   3.147  0.4281  0.7087  0.5862
 1724SOL    HW2 6899   0.668   3.117   3.242 -0.0440 -1.3273  0.4775
 1724SOL    HW3 6900   0.602   3.156   3.111  0.2797  0.6755  0.8834
 1724SOL    MW4 6901   0.670   3.124   3.155  0.3462  0.4358  0.6113
 1725SOL     OW 6902   0.428   3.185   3.055  0.1121 -0.0328 -0.0503
 1725SOL    HW2 6903   0.426   3.281   3.060  0.0444  0.0393 -1.2367
 1725SOL    HW3 6904   0.342   3.157   3.086  0.0715  0.3068  0.1423
 1725SOL    MW4 6905   0.416   3.194   3.059  0.0978  0.0215 -0.1817
 1726SOL     OW 6906   0.423   3.465   3.084 -0.0120 -0.2145 -0.3400
 1726SOL    HW2 6907   0.419   3.477   3.179  1.0973  0.4975 -0.3836
 1726SOL    HW3 6908   0.345   3.509   3.051 -1.0987 -1.5667  0.3401
 1726SOL    MW4 6909   0.412   3.472   3.092 -0.0091 -0.2990 -0.2558
 1727SOL     OW 6910   0.626   3.625   2.987 -0.3075  0.3331  0.1438
 1727SOL    HW2 6911   0.714   3.605   3.019 -0.9958 -1.6803  0.9218
 1727SOL    HW3 6912   0.570   3.558   3.029 -2.5009  2.7445  1.2235
 1727SOL    MW4 6913   0.630   3.613   2.997 -0.6877  0.3855  0.3889
 1728SOL     OW 6914   0.663   3.874   3.087  0.5990 -0.2884  0.3044
 1728SOL    HW2 6915   0.696   3.871   3.177 -1.6422 -0.2738  1.1412
 1728SOL    HW3 6916   0.641   3.784   3.066 -1.2692  0.0609  0.6946
 1728SOL    MW4 6917   0.665   3.862   3.096  0.0569 -0.2401  0.4663
 1729SOL     OW 6918   0.450   4.044   3.034 -0.1422 -0.4188 -0.4033
 1729SOL    HW2 6919   0.530   3.994   3.049  0.4178  0.1872 -1.3216
 1729SOL    HW3 6920   0.438   4.043   2.939 -1.0522 -0.2318 -0.2995
 1729SOL    MW4 6921   0.459   4.038   3.024 -0.1883 -0.3138 -0.5109
 1730SOL     OW 6922   0.451   4.286   3.162 -0.2313  0.1242 -0.0755
 1730SOL    HW2 6923   0.458   4.202   3.119  3.3700  0.1166  0.3760
 1730SOL    HW3 6924   0.372   4.326   3.126 -1.8511 -3.3294 -0.4460
 1730SOL    MW4 6925   0.442   4.280   3.152  0.0302 -0.3328 -0.0648
 1731SOL     OW 6926   0.693   4.387   3.060 -0.3392 -0.8234 -0.0853
 1731SOL    HW2 6927   0.604   4.354   3.072 -0.3454 -0.8271 -0.1390
 1731SOL    HW3 6928   0.704   4.391   2.965 -0.4585 -0.3541 -0.0825
 1731SOL    MW4 6929   0.683   4.383   3.049 -0.3557 -0.7620 -0.0923
 1732SOL     OW 6930   1.077   4.635   3.125 -0.1423  0.4804 -0.1144
 1732SOL    HW2 6931   1.149   4.694   3.102  0.1111  0.2916  0.1914
 1732SOL    HW3 6932   1.006   4.660   3.065  0.9980 -1.0295 -2.1482
 1732SOL    MW4 6933   1.077   4.646   3.114  0.0417  0.2556 -0.3421
 1733SOL     OW 6934   0.875   0.098   2.993 -0.3336  0.3197 -0.2061
 1733SOL    HW2 6935   0.903   0.182   3.028  0.4084 -0.2593  0.6181
 1733SOL    HW3 6936   0.804   0.070   3.050 -0.7588  0.5059 -0.6392
 1733SOL    MW4 6937   0.869   0.105   3.005 -0.2918  0.2678 -0.1545
 1734SOL     OW 6938   0.898   0.346   3.125 -0.6274  0.1817 -0.3064
 1734SOL    HW2 6939   0.895   0.351   3.220  1.3955 -0.9982 -0.1572
 1734SOL    HW3 6940   0.977   0.395   3.100 -0.7238 -0.1445 -1.3051
 1734SOL    MW4 6941   0.908   0.353   3.134 -0.3732 -0.0170 -0.4187
 1735SOL     OW 6942   1.112   0.475   3.013 -0.4085  0.1685 -0.0557
 1735SOL    HW2 6943   1.198   0.436   3.031 -0.8292 -0.7376  0.0110
 1735SOL    HW3 6944   1.100   0.463   2.919 -0.4144  0.3888 -0.0820
 1735SOL    MW4 6945   1.122   0.468   3.003 -0.4648  0.0780 -0.0505
 1736SOL     OW 6946   1.113   0.759   3.122  0.0716 -0.1444 -0.0581
 1736SOL    HW2 6947   1.113   0.740   3.216  1.1334 -0.4886 -0.1161
 1736SOL    HW3 6948   1.107   0.674   3.080 -1.0088  0.0549 -0.2981
 1736SOL    MW4 6949   1.112   0.745   3.129  0.0693 -0.1635 -0.0973
 1737SOL     OW 6950   0.927   0.931   3.013  0.2030  0.0750 -0.1620
 1737SOL    HW2 6951   0.981   0.869   3.062  0.1656 -0.9915 -1.4495
 1737SOL    HW3 6952   0.838   0.898   3.025  0.0353  0.6933  0.3118
 1737SOL    MW4 6953   0.922   0.918   3.021  0.1760  0.0157 -0.2694
 1738SOL     OW 6954   0.912   1.183   3.143 -0.3137  0.1873 -0.4458
 1738SOL    HW2 6955   1.000   1.218   3.130  0.0692 -0.8808 -0.8272
 1738SOL    HW3 6956   0.917   1.093   3.112 -1.9033  0.5168 -1.7662
 1738SOL    MW4 6957   0.924   1.176   3.137 -0.4730  0.0899 -0.6702
 1739SOL     OW 6958   1.169   1.280   3.087  0.1135 -0.4689 -0.0267
 1739SOL    HW2 6959   1.260   1.252   3.096  0.0035 -1.4587 -1.6634
 1739SOL    HW3 6960   1.159   1.297   2.993 -1.0567  0.8120  0.3195
 1739SOL    MW4 6961   1.180   1.278   3.076 -0.0553 -0.4306 -0.1967
 1740SOL     OW 6962   1.111   1.570   3.117 -0.0737  0.6105  0.3092
 1740SOL    HW2 6963   1.198   1.604   3.096  0.1951  0.1108  0.5907
 1740SOL    HW3 6964   1.121   1.475   3.109 -0.9619  0.6162 -1.0499
 1740SOL    MW4 6965   1.124   1.562   3.113 -0.1554  0.5451  0.1671
 1741SOL     OW 6966   0.878   1.669   2.992 -0.1962 -0.1666  0.0169
 1741SOL    HW2 6967   0.950   1.638   3.047 -0.4537  0.8579  0.9459
 1741SOL    HW3 6968   0.802   1.621   3.024 -0.3793  0.5590  0.6870
 1741SOL    MW4 6969   0.878   1.658   3.004 -0.2543  0.0644  0.2279
 1742SOL     OW 6970   0.829   1.930   3.082 -0.8615 -0.1988 -0.0524
 1742SOL    HW2 6971   0.831   1.899   3.173  2.3452 -2.0107 -0.6605
 1742SOL    HW3 6972   0.845   1.851   3.030 -0.6576  1.1668 -2.1058
 1742SOL    MW4 6973   0.831   1.915   3.087 -0.4115 -0.2576 -0.4036
 1743SOL     OW 6974   1.076   2.043   3.005  0.1617 -1.0715 -0.5854
 1743SOL    HW2 6975   0.991   2.011   3.037  0.1130 -0.3945 -0.0105
 1743SOL    HW3 6976   1.066   2.047   2.910 -0.2361 -1.5997 -0.5684
 1743SOL    MW4 6977   1.063   2.039   2.997  0.1029 -1.0519 -0.5071
 1744SOL     OW 6978   1.128   2.297   3.105  0.3646  0.5214  0.1969
 1744SOL    HW2 6979   1.050   2.345   3.076  1.2040  1.5766 -0.3727
 1744SOL    HW3 6980   1.117   2.209   3.069 -0.0337  0.9776 -0.8347
 1744SOL    MW4 6981   1.116   2.292   3.096  0.4228  0.7207 -0.0148
 1745SOL     OW 6982   0.909   2.444   3.033  0.0855  0.3494 -0.3771
 1745SOL    HW2 6983   0.822   2.405   3.037  0.7707 -1.2090 -0.0757
 1745SOL    HW3 6984   0.934   2.439   2.941  0.4842 -0.6460 -0.2178
 1745SOL    MW4 6985   0.901   2.438   3.021  0.2285  0.0124 -0.3166
 1746SOL     OW 6986   0.896   2.724   3.114 -0.0128  0.8595  0.2944
 1746SOL    HW2 6987   0.901   2.723   3.209  0.3793 -0.2098  0.2713
 1746SOL    HW3 6988   0.898   2.632   3.088 -0.7968  1.1075 -0.7195
 1746SOL    MW4 6989   0.897   2.712   3.123 -0.0646  0.7510  0.1576
 1747SOL     OW 6990   1.131   2.821   2.994  0.3569  0.0704  0.1895
 1747SOL    HW2 6991   1.144   2.910   3.027 -0.5504 -0.0868  1.0000
 1747SOL    HW3 6992   1.051   2.791   3.037 -0.4510 -0.4188 -1.6019
 1747SOL    MW4 6993   1.122   2.829   3.004  0.1305 -0.0150  0.0601
 1748SOL     OW 6994   1.148   3.096   3.105 -0.0501  0.0683 -0.3550
 1748SOL    HW2 6995   1.218   3.147   3.066 -0.5468  0.7891 -0.3171
 1748SOL    HW3 6996   1.067   3.141   3.078 -0.4254  0.1759  0.8935
 1748SOL    MW4 6997   1.146   3.109   3.097 -0.1652  0.1776 -0.1853
 1749SOL     OW 6998   0.913   3.216   3.044  0.2093  0.2091 -0.2165
 1749SOL    HW2 6999   0.831   3.178   3.074  1.1561 -0.8832  1.0307
 1749SOL    HW3 7000   0.903   3.225   2.949 -1.2278 -0.1668 -0.1002
 1749SOL    MW4 7001   0.901   3.212   3.035  0.1446  0.0155 -0.0362
 1750SOL     OW 7002   0.862   3.499   3.097 -0.0655  0.1315  0.0779
 1750SOL    HW2 7003   0.940   3.548   3.072  1.1193 -1.3609  0.7776
 1750SOL    HW3 7004   0.885   3.408   3.083 -2.4356 -0.2288 -1.7149
 1750SOL    MW4 7005   0.876   3.494   3.092 -0.2218 -0.1128 -0.0663
 1751SOL     OW 7006   1.097   3.623   3.051 -0.0271  0.1500  0.0116
 1751SOL    HW2 7007   1.185   3.591   3.069 -0.0429  0.1918  0.1701
 1751SOL    HW3 7008   1.095   3.710   3.091 -0.7466 -0.6159  1.6687
 1751SOL    MW4 7009   1.108   3.630   3.059 -0.1241  0.0544  0.2511
 1752SOL     OW 7010   1.113   3.882   3.144  0.1188 -0.1903  0.1888
 1752SOL    HW2 7011   1.094   3.890   3.238 -0.6372  0.1594  0.0120
 1752SOL    HW3 7012   1.039   3.925   3.101 -0.0348 -1.2250 -0.5968
 1752SOL    MW4 7013   1.101   3.889   3.151 -0.0012 -0.2806  0.0618
 1753SOL     OW 7014   0.893   4.003   3.014 -0.0477 -0.4954 -0.0804
 1753SOL    HW2 7015   0.806   3.975   3.042 -0.2142  1.3776  1.3436
 1753SOL    HW3 7016   0.890   3.999   2.919 -0.9350 -2.6463 -0.0061
 1753SOL    MW4 7017   0.881   3.999   3.005 -0.1867 -0.5317  0.1171
 1754SOL     OW 7018   0.927   4.260   3.155 -0.3100 -0.3324  0.1857
 1754SOL    HW2 7019   0.933   4.175   3.111  2.0842  0.7304 -1.5735
 1754SOL    HW3 7020   0.841   4.293   3.131 -0.9965 -1.9560  0.3363
 1754SOL    MW4 7021   0.916   4.253   3.146 -0.0847 -0.4063 -0.0265
 1755SOL     OW 7022   1.107   4.415   2.980  0.3496 -0.2056 -0.5611
 1755SOL    HW2 7023   1.029   4.370   3.012  0.0972 -0.1937 -1.1556
 1755SOL    HW3 7024   1.112   4.494   3.033  0.7213 -0.8581  0.4038
 1755SOL    MW4 7025   1.097   4.419   2.991  0.3654 -0.2904 -0.5121
 1756SOL     OW 7026   1.536   4.646   3.123  0.0304 -0.2401 -0.2393
 1756SOL    HW2 7027   1.545   4.648   3.219  1.2683 -1.5336 -0.3222
 1756SOL    HW3 7028   1.451   4.687   3.107 -0.0983  0.2009  1.3965
 1756SOL    MW4 7029   1.526   4.652   3.134  0.1768 -0.3524 -0.0343
 1757SOL     OW 7030   1.295   0.103   3.014 -0.5109 -0.1340  0.4755
 1757SOL    HW2 7031   1.326   0.192   3.030 -1.4114  0.1115  0.9015
 1757SOL    HW3 7032   1.314   0.087   2.922 -1.1688  0.8313  0.1707
 1757SOL    MW4 7033   1.302   0.113   3.004 -0.7166  0.0258  0.4919
 1758SOL     OW 7034   1.371   0.373   3.100 -0.3481  0.4990  0.1868
 1758SOL    HW2 7035   1.355   0.384   3.194 -0.1649  1.4089  0.1100
 1758SOL    HW3 7036   1.445   0.430   3.081 -1.1234  1.2116 -0.7368
 1758SOL    MW4 7037   1.379   0.382   3.110 -0.4262  0.7131  0.0548
 1759SOL     OW 7038   1.599   0.512   3.018 -0.6258 -0.1310  0.4244
 1759SOL    HW2 7039   1.604   0.604   3.045 -0.8675  0.0226 -0.0616
 1759SOL    HW3 7040   1.589   0.515   2.923  2.5236 -0.7074  0.0192
 1759SOL    MW4 7041   1.599   0.525   3.009 -0.2422 -0.1868  0.3071
 1760SOL     OW 7042   1.642   0.770   3.118 -0.0625 -0.6777  0.0262
 1760SOL    HW2 7043   1.640   0.758   3.213  1.1964  0.8261  0.2721
 1760SOL    HW3 7044   1.553   0.795   3.095 -0.2041 -0.3268  0.9225
 1760SOL    MW4 7045   1.630   0.772   3.127  0.0850 -0.4330  0.1769
 1761SOL     OW 7046   1.360   0.857   3.050  0.2936 -0.1052 -0.0041
 1761SOL    HW2 7047   1.368   0.950   3.068 -1.5034  0.3101 -1.2190
 1761SOL    HW3 7048   1.277   0.831   3.090 -0.0660 -0.7980 -1.1610
 1761SOL    MW4 7049   1.350   0.866   3.058  0.0091 -0.1418 -0.3171
 1762SOL     OW 7050   1.389   1.118   3.119  0.2225 -0.0664 -0.2821
 1762SOL    HW2 7051   1.381   1.125   3.214 -0.1480 -2.0377 -0.1641
 1762SOL    HW3 7052   1.473   1.158   3.099  0.3857  0.1869  0.8874
 1762SOL    MW4 7053   1.399   1.125   3.129  0.1953 -0.2930 -0.1123
 1763SOL     OW 7054   1.594   1.297   3.037 -0.4579 -0.0557  0.6131
 1763SOL    HW2 7055   1.677   1.261   3.066 -0.7755 -0.1057  1.4735
 1763SOL    HW3 7056   1.596   1.389   3.065  0.3529  0.6357 -1.5757
 1763SOL    MW4 7057   1.605   1.305   3.044 -0.3930  0.0290  0.4377
 1764SOL     OW 7058   1.590   1.553   3.119 -0.3600  0.0452  0.0900
 1764SOL    HW2 7059   1.668   1.596   3.084  0.9862 -1.0460  1.7303
 1764SOL    HW3 7060   1.518   1.613   3.095  0.6832  0.1877 -3.0041
 1764SOL    MW4 7061   1.591   1.567   3.111 -0.0448 -0.0801 -0.1018
 1765SOL     OW 7062   1.346   1.695   3.041 -0.1021  0.4458  0.1534
 1765SOL    HW2 7063   1.342   1.790   3.055  1.4180  0.7990 -1.7187
 1765SOL    HW3 7064   1.333   1.684   2.947  1.9617 -1.0416  0.0143
 1765SOL    MW4 7065   1.344   1.706   3.031  0.3707  0.2961 -0.1121
 1766SOL     OW 7066   1.336   1.974   3.089  0.2866  0.2513  0.6066
 1766SOL    HW2 7067   1.333   1.973   3.185 -1.0985 -0.5123  0.5596
 1766SOL    HW3 7068   1.249   2.002   3.062  0.4762 -0.1345 -0.4338
 1766SOL    MW4 7069   1.325   1.977   3.098  0.1289  0.0995  0.4630
 1767SOL     OW 7070   1.608   2.051   3.010  0.6195  0.1462 -0.4283
 1767SOL    HW2 7071   1.524   2.018   3.041  0.5807  0.5202 -0.1332
 1767SOL    HW3 7072   1.599   2.052   2.915  0.3498  0.0256 -0.4047
 1767SOL    MW4 7073   1.595   2.047   3.002  0.5788  0.1798 -0.3865
 1768SOL     OW 7074   1.570   2.329   3.072 -0.0291 -0.2472  0.0892
 1768SOL    HW2 7075   1.497   2.356   3.016 -0.0923  0.2884  0.4336
 1768SOL    HW3 7076   1.581   2.236   3.053 -0.2839 -0.1464 -0.5512
 1768SOL    MW4 7077   1.562   2.320   3.062 -0.0710 -0.1633  0.0505
 1769SOL     OW 7078   1.360   2.484   2.989  0.0677  0.4888 -0.1703
 1769SOL    HW2 7079   1.286   2.436   3.028  0.2047  0.4053 -0.0101
 1769SOL    HW3 7080   1.343   2.481   2.895 -0.8332  1.6373 -0.0472
 1769SOL    MW4 7081   1.348   2.477   2.982 -0.0329  0.6292 -0.1330
 1770SOL     OW 7082   1.372   2.741   3.110  0.3316 -0.2886 -0.0848
 1770SOL    HW2 7083   1.362   2.649   3.086 -1.8359 -0.0617 -0.1137
 1770SOL    HW3 7084   1.289   2.782   3.086  1.2662  1.6943 -0.0864
 1770SOL    MW4 7085   1.360   2.734   3.104  0.1689  0.0033 -0.0887
 1771SOL     OW 7086   1.578   2.862   2.983 -0.5414  0.0983 -0.1171
 1771SOL    HW2 7087   1.647   2.808   3.020  0.0872  1.6127  0.9880
 1771SOL    HW3 7088   1.497   2.828   3.021 -0.0347  0.7176  1.5620
 1771SOL    MW4 7089   1.577   2.851   2.993 -0.3916  0.3798  0.2501
 1772SOL     OW 7090   1.602   3.117   3.107  0.1106  0.0969  0.2284
 1772SOL    HW2 7091   1.618   3.114   3.201  0.2398  1.2218  0.2441
 1772SOL    HW3 7092   1.601   3.025   3.080  0.5108 -0.2113  1.2489
 1772SOL    MW4 7093   1.604   3.104   3.116  0.1804  0.2048  0.3653
 1773SOL     OW 7094   1.361   3.215   2.994 -0.6422  0.2035 -0.0001
 1773SOL    HW2 7095   1.435   3.183   3.046 -1.0222  0.9937  1.0601
 1773SOL    HW3 7096   1.391   3.212   2.904  0.7156  0.5885  0.4362
 1773SOL    MW4 7097   1.374   3.211   2.989 -0.5132  0.3583  0.1972
 1774SOL     OW 7098   1.336   3.490   3.105 -0.3112 -0.1849 -0.0949
 1774SOL    HW2 7099   1.347   3.468   3.198 -1.2774 -0.6184 -0.0824
 1774SOL    HW3 7100   1.339   3.406   3.060 -0.3481 -0.0170 -0.4094
 1774SOL    MW4 7101   1.338   3.476   3.111 -0.4435 -0.2198 -0.1347
 1775SOL     OW 7102   1.551   3.643   2.993  0.3070 -0.4671 -0.3062
 1775SOL    HW2 7103   1.486   3.582   3.028  1.4776 -0.8583  1.2205
 1775SOL    HW3 7104   1.544   3.633   2.898 -3.1065  0.8222 -0.2736
 1775SOL    MW4 7105   1.542   3.634   2.985  0.0108 -0.3486 -0.1004
 1776SOL     OW 7106   1.566   3.893   3.163 -0.0786  0.0053  0.0211
 1776SOL    HW2 7107   1.650   3.932   3.141 -0.5881  0.6111 -0.9220
 1776SOL    HW3 7108   1.562   3.812   3.112  0.8551 -1.1366  1.7534
 1776SOL    MW4 7109   1.576   3.888   3.153 -0.0228 -0.0653  0.1252
 1777SOL     OW 7110   1.342   3.986   3.013 -0.1956  0.2111 -0.2788
 1777SOL    HW2 7111   1.421   3.976   3.066  0.1759  2.0638 -0.4573
 1777SOL    HW3 7112   1.277   3.930   3.057  0.7228  0.0280  0.8708
 1777SOL    MW4 7113   1.344   3.977   3.026 -0.0253  0.4313 -0.1507
 1778SOL     OW 7114   1.290   4.255   3.111  0.2775 -0.2184 -0.0200
 1778SOL    HW2 7115   1.299   4.166   3.076 -2.3364 -0.8444  0.7843
 1778SOL    HW3 7116   1.227   4.297   3.052  1.8445  1.2594 -0.6577
 1778SOL    MW4 7117   1.283   4.249   3.098  0.1394 -0.1063  0.0019
 1779SOL     OW 7118   1.498   4.399   3.006  0.1617 -0.2727  0.3161
 1779SOL    HW2 7119   1.423   4.356   3.047 -0.9085  1.3656  0.1223
 1779SOL    HW3 7120   1.495   4.489   3.039  1.6277  0.0046 -0.2525
 1779SOL    MW4 7121   1.488   4.405   3.016  0.2139 -0.0196  0.2153
 1780SOL     OW 7122   2.020   4.658   3.124 -0.2216  0.0966 -0.1953
 1780SOL    HW2 7123   2.016   4.646   3.218 -0.8469  1.1524 -0.0831
 1780SOL    HW3 7124   1.943   4.711   3.103  0.9831  1.5621 -1.0196
 1780SOL    MW4 7125   2.010   4.664   3.133 -0.1454  0.4287 -0.2892
 1781SOL     OW 7126   1.773   0.111   3.065 -0.1249 -0.3792 -0.1367
 1781SOL    HW2 7127   1.694   0.060   3.079  0.3094 -1.1454 -0.3923
 1781SOL    HW3 7128   1.777   0.123   2.970  1.1179 -2.1058 -0.3325
 1781SOL    MW4 7129   1.763   0.106   3.054  0.0962 -0.7081 -0.1962
 1782SOL     OW 7130   1.786   0.372   3.146 -0.3008 -0.5616 -0.1566
 1782SOL    HW2 7131   1.767   0.280   3.127 -0.5323 -0.7402  0.9340
 1782SOL    HW3 7132   1.708   0.419   3.117 -0.9211 -0.9060  0.9279
 1782SOL    MW4 7133   1.773   0.366   3.139 -0.4132 -0.6306  0.1302
 1783SOL     OW 7134   1.974   0.521   3.016  0.0386 -0.0833 -0.5948
 1783SOL    HW2 7135   1.916   0.468   3.071 -0.0397  0.9418  0.3260
 1783SOL    HW3 7136   1.950   0.498   2.926 -1.4783 -0.0241 -0.2116
 1783SOL    MW4 7137   1.963   0.511   3.011 -0.1720  0.0598 -0.4230
 1784SOL     OW 7138   2.045   0.781   3.056  0.0800 -0.0114 -0.0289
 1784SOL    HW2 7139   1.963   0.819   3.024  1.1688  0.4539 -2.4376
 1784SOL    HW3 7140   2.031   0.687   3.054  0.1700 -0.0058 -2.1976
 1784SOL    MW4 7141   2.033   0.774   3.051  0.2353  0.0507 -0.6328
 1785SOL     OW 7142   1.830   0.925   2.994 -0.2498  0.2581  0.5959
 1785SOL    HW2 7143   1.764   0.868   3.034 -0.3533 -1.0023 -1.3432
 1785SOL    HW3 7144   1.811   0.922   2.901  1.9142  0.7003  0.1244
 1785SOL    MW4 7145   1.819   0.917   2.987  0.0222  0.1502  0.2778
 1786SOL     OW 7146   1.831   1.169   3.119  0.4248 -0.3607 -0.1585
 1786SOL    HW2 7147   1.818   1.158   3.214  0.7646 -1.4846 -0.2259
 1786SOL    HW3 7148   1.844   1.079   3.087  1.8426  0.1490 -1.0380
 1786SOL    MW4 7149   1.831   1.155   3.127  0.6568 -0.4418 -0.2835
 1787SOL     OW 7150   2.049   1.280   2.978  0.2717  0.0007  0.1770
 1787SOL    HW2 7151   2.122   1.236   3.023  0.6838  0.5223  0.0204
 1787SOL    HW3 7152   1.971   1.249   3.024  0.6980  0.6341  1.3520
 1787SOL    MW4 7153   2.048   1.270   2.990  0.3822  0.1532  0.3114
 1788SOL     OW 7154   2.047   1.548   3.103  0.2585 -0.5947 -0.2847
 1788SOL    HW2 7155   2.040   1.528   3.197 -2.1775 -1.3627 -0.5844
 1788SOL    HW3 7156   2.053   1.462   3.061  0.0291 -0.3054 -0.9117
 1788SOL    MW4 7157   2.047   1.534   3.110 -0.0932 -0.6578 -0.4070
 1789SOL     OW 7158   1.803   1.687   3.007 -0.1518 -0.1902 -0.2287
 1789SOL    HW2 7159   1.835   1.771   3.039  0.3203  0.1755 -1.6170
 1789SOL    HW3 7160   1.879   1.629   3.013 -0.1250 -0.1801 -0.4818
 1789SOL    MW4 7161   1.817   1.690   3.012 -0.0859 -0.1407 -0.4451
 1790SOL     OW 7162   1.862   1.950   3.086  0.1138 -0.0529  1.0121
 1790SOL    HW2 7163   1.929   1.998   3.038  1.3046 -0.8611  1.8401
 1790SOL    HW3 7164   1.780   1.992   3.061  0.9438  1.0880  0.1497
 1790SOL    MW4 7165   1.860   1.962   3.077  0.3804 -0.0089  1.0076
 1791SOL     OW 7166   2.054   2.129   2.981 -0.0231 -0.1264 -0.3703
 1791SOL    HW2 7167   2.130   2.082   3.016  0.3059  0.9502  0.3535
 1791SOL    HW3 7168   2.057   2.215   3.023 -0.3854  0.7063 -2.0207
 1791SOL    MW4 7169   2.064   2.134   2.991 -0.0277  0.1259 -0.4926
 1792SOL     OW 7170   2.080   2.356   3.118 -0.0129  0.3386  0.3105
 1792SOL    HW2 7171   2.161   2.386   3.076  0.1094 -0.8528 -0.3416
 1792SOL    HW3 7172   2.011   2.405   3.075  0.1153 -0.8622 -1.3221
 1792SOL    MW4 7173   2.082   2.366   3.107  0.0200  0.0231  0.0088
 1793SOL     OW 7174   1.824   2.438   2.994 -0.3348  0.1969 -0.0487
 1793SOL    HW2 7175   1.809   2.532   3.007 -0.4299  0.3843 -1.3781
 1793SOL    HW3 7176   1.737   2.399   3.008 -0.7357  0.5488 -1.4532
 1793SOL    MW4 7177   1.810   2.446   2.997 -0.4002  0.2682 -0.4094
 1794SOL     OW 7178   1.788   2.711   3.072 -0.2701 -0.2681 -0.2525
 1794SOL    HW2 7179   1.786   2.709   3.168 -0.7324  0.8498 -0.2237
 1794SOL    HW3 7180   1.875   2.745   3.050 -0.4739  0.2959 -0.2010
 1794SOL    MW4 7181   1.799   2.715   3.082 -0.3581 -0.0463 -0.2418
 1795SOL     OW 7182   2.028   2.844   3.041 -0.5044  0.3194 -0.1407
 1795SOL    HW2 7183   2.033   2.936   3.066  1.1976  0.2547 -0.1625
 1795SOL    HW3 7184   2.036   2.845   2.945  1.2206  0.0724 -0.0251
 1795SOL    MW4 7185   2.030   2.857   3.031 -0.0522  0.2782 -0.1283
 1796SOL     OW 7186   2.038   3.095   3.103 -0.1739 -0.3853  0.5127
 1796SOL    HW2 7187   2.038   3.122   3.195  1.5351 -1.9870  1.0223
 1796SOL    HW3 7188   1.958   3.132   3.067 -0.1424  1.5026  2.2759
 1796SOL    MW4 7189   2.028   3.103   3.110  0.0558 -0.3476  0.8123
 1797SOL     OW 7190   1.830   3.240   2.983  0.3041  0.1515  0.1400
 1797SOL    HW2 7191   1.748   3.200   3.014  1.6445 -2.1485  0.8160
 1797SOL    HW3 7192   1.826   3.230   2.888 -0.4861  0.6242  0.1169
 1797SOL    MW4 7193   1.818   3.233   2.975  0.3767 -0.0896  0.2263
 1798SOL     OW 7194   1.789   3.530   3.077 -0.6621 -0.0260  0.4408
 1798SOL    HW2 7195   1.775   3.444   3.037  0.1010  0.7508 -1.5748
 1798SOL    HW3 7196   1.716   3.583   3.045 -0.3491  0.4529  0.5165
 1798SOL    MW4 7197   1.777   3.525   3.067 -0.5200  0.1397  0.1848
 1799SOL     OW 7198   2.038   3.630   2.981 -0.3184 -0.3634 -0.5281
 1799SOL    HW2 7199   2.042   3.710   3.033  1.9649 -0.6963 -0.1299
 1799SOL    HW3 7200   1.955   3.590   3.004 -0.4583  0.7588  0.9676
 1799SOL    MW4 7201   2.028   3.635   2.991 -0.0358 -0.2592 -0.2782
 1800SOL     OW 7202   2.019   3.871   3.115  0.3571  0.0842  0.5252
 1800SOL    HW2 7203   2.039   3.871   3.208 -0.6652 -1.0822  0.7681
 1800SOL    HW3 7204   1.943   3.929   3.107 -0.6140 -1.1435  0.6845
 1800SOL    MW4 7205   2.011   3.879   3.126  0.0942 -0.2317  0.5782
 1801SOL     OW 7206   1.793   4.035   3.075  0.4726 -0.5547 -0.3916
 1801SOL    HW2 7207   1.772   4.126   3.095 -1.2936 -0.8499 -0.8097
 1801SOL    HW3 7208   1.790   4.030   2.980 -0.7324 -1.3308 -0.3252
 1801SOL    MW4 7209   1.790   4.046   3.065  0.0806 -0.6962 -0.4382
 1802SOL     OW 7210   1.726   4.300   3.133  0.2232 -0.3052 -0.0805
 1802SOL    HW2 7211   1.789   4.358   3.091  0.8695 -1.1604 -0.3128
 1802SOL    HW3 7212   1.640   4.334   3.107  0.6063 -0.5317 -1.7186
 1802SOL    MW4 7213   1.723   4.312   3.124  0.3591 -0.4478 -0.3271
 1803SOL     OW 7214   1.958   4.409   3.026  0.0594  0.1047  0.0837
 1803SOL    HW2 7215   1.960   4.493   3.070  0.6381  0.1978 -0.1109
 1803SOL    HW3 7216   1.997   4.426   2.940 -0.9034 -0.1078 -0.4065
 1803SOL    MW4 7217   1.963   4.422   3.020  0.0087  0.0887 -0.0064
 1804SOL     OW 7218   2.453   4.627   3.164  0.9372  0.0378 -0.3759
 1804SOL    HW2 7219   2.463   4.547   3.113 -0.4680 -0.4832  0.1429
 1804SOL    HW3 7220   2.377   4.670   3.126 -0.3690 -0.5533  1.5185
 1804SOL    MW4 7221   2.444   4.622   3.152  0.5796 -0.1092 -0.0575
 1805SOL     OW 7222   2.271   0.102   3.018  0.2128  0.3769  0.3650
 1805SOL    HW2 7223   2.255   0.196   3.029  0.3902  0.5302 -0.6467
 1805SOL    HW3 7224   2.193   0.061   3.056 -1.1648  1.0277 -1.6646
 1805SOL    MW4 7225   2.259   0.109   3.025  0.0546  0.4830 -0.0360
 1806SOL     OW 7226   2.188   0.357   3.073 -0.3815 -0.2396  0.0730
 1806SOL    HW2 7227   2.190   0.381   3.165 -0.5339 -1.2499  0.3405
 1806SOL    HW3 7228   2.106   0.394   3.041  0.0825  0.8461  0.1394
 1806SOL    MW4 7229   2.177   0.365   3.081 -0.3405 -0.2297  0.1171
 1807SOL     OW 7230   2.401   0.517   3.004 -0.2222  0.0112 -0.5815
 1807SOL    HW2 7231   2.315   0.477   3.009  0.2116 -0.9664 -0.7202
 1807SOL    HW3 7232   2.417   0.529   2.910 -0.7789  1.4752 -0.4979
 1807SOL    MW4 7233   2.392   0.513   2.992 -0.2382  0.0754 -0.5889
 1808SOL     OW 7234   2.458   0.752   3.108  0.6562  0.0443 -0.2445
 1808SOL    HW2 7235   2.541   0.770   3.063 -0.4490  0.4431 -2.1617
 1808SOL    HW3 7236   2.432   0.665   3.076  1.9430 -1.5767  2.8681
 1808SOL    MW4 7237   2.466   0.743   3.098  0.6800 -0.1169 -0.0868
 1809SOL     OW 7238   2.285   0.919   2.978  0.0788 -0.0302 -0.8361
 1809SOL    HW2 7239   2.347   0.873   3.035  0.3070 -0.7385 -1.6400
 1809SOL    HW3 7240   2.201   0.877   2.994 -0.0639  0.4786 -0.2442
 1809SOL    MW4 7241   2.282   0.907   2.987  0.0899 -0.0565 -0.8640
 1810SOL     OW 7242   2.298   1.176   3.100  0.2646  0.1129 -0.0680
 1810SOL    HW2 7243   2.294   1.161   3.195 -1.6066 -0.0145 -0.1451
 1810SOL    HW3 7244   2.309   1.089   3.063 -3.5862 -0.4301 -0.1578
 1810SOL    MW4 7245   2.299   1.163   3.108 -0.4904  0.0244 -0.0899
 1811SOL     OW 7246   2.515   1.321   2.985  0.0800  0.3388 -0.0985
 1811SOL    HW2 7247   2.437   1.281   3.024 -1.4349  1.7814 -1.5934
 1811SOL    HW3 7248   2.499   1.317   2.891  1.5532  1.1677 -0.3918
 1811SOL    MW4 7249   2.502   1.315   2.978  0.0741  0.6385 -0.3345
 1812SOL     OW 7250   2.480   1.566   3.094  0.1737 -0.1109  0.0189
 1812SOL    HW2 7251   2.392   1.593   3.068  0.4305 -0.6766 -1.5338
 1812SOL    HW3 7252   2.494   1.483   3.049  0.5202 -1.3567  2.3667
 1812SOL    MW4 7253   2.470   1.559   3.084  0.2534 -0.3500  0.1240
 1813SOL     OW 7254   2.249   1.700   3.010 -0.2955  0.2656 -0.3632
 1813SOL    HW2 7255   2.181   1.654   3.060  0.4028 -0.7017 -0.2937
 1813SOL    HW3 7256   2.214   1.705   2.921 -0.6407  0.1369 -0.2340
 1813SOL    MW4 7257   2.235   1.695   3.005 -0.2487  0.1210 -0.3371
 1814SOL     OW 7258   2.243   1.959   3.098 -0.1944 -0.2234  0.1089
 1814SOL    HW2 7259   2.319   2.006   3.064 -0.4822 -0.5048 -0.9452
 1814SOL    HW3 7260   2.251   1.870   3.063 -0.7031 -0.4194  0.4661
 1814SOL    MW4 7261   2.254   1.953   3.089 -0.2995 -0.2865  0.0167
 1815SOL     OW 7262   2.470   2.110   2.997 -0.0666 -0.2042  0.1201
 1815SOL    HW2 7263   2.548   2.070   3.036  0.6660  0.5301 -0.5943
 1815SOL    HW3 7264   2.475   2.087   2.904 -0.5214  0.1395  0.0099
 1815SOL    MW4 7265   2.481   2.101   2.990 -0.0303 -0.0620  0.0112
 1816SOL     OW 7266   2.488   2.359   3.110 -0.2575 -0.0379  0.2507
 1816SOL    HW2 7267   2.481   2.344   3.204 -1.2093 -0.2791  0.1417
 1816SOL    HW3 7268   2.484   2.272   3.071  0.6268  0.0218  0.0107
 1816SOL    MW4 7269   2.487   2.346   3.117 -0.2666 -0.0618  0.2048
 1817SOL     OW 7270   2.285   2.469   2.965  0.1555  0.1411  0.1105
 1817SOL    HW2 7271   2.281   2.552   3.013  0.0023  0.3727 -0.3025
 1817SOL    HW3 7272   2.355   2.420   3.009 -0.3261  0.1468  0.8874
 1817SOL    MW4 7273   2.294   2.473   2.977  0.0720  0.1726  0.1585
 1818SOL     OW 7274   2.256   2.694   3.113 -0.3403 -0.3428 -0.4145
 1818SOL    HW2 7275   2.321   2.753   3.076 -0.1055  0.1063  0.7027
 1818SOL    HW3 7276   2.175   2.745   3.114 -0.0977  0.0345  0.7181
 1818SOL    MW4 7277   2.254   2.709   3.109 -0.2773 -0.2339 -0.1178
 1819SOL     OW 7278   2.484   2.835   3.034 -0.1284 -0.0296  0.4461
 1819SOL    HW2 7279   2.506   2.922   3.067  2.9293 -0.9272  0.9660
 1819SOL    HW3 7280   2.487   2.844   2.939 -1.6649  0.8469  0.4681
 1819SOL    MW4 7281   2.488   2.848   3.026  0.0720 -0.0322  0.5176
 1820SOL     OW 7282   2.530   3.106   3.106  0.2124 -0.0516 -0.1780
 1820SOL    HW2 7283   2.610   3.153   3.083  0.2900  0.3685  0.9075
 1820SOL    HW3 7284   2.460   3.158   3.066  0.3495  0.6268  0.4410
 1820SOL    MW4 7285   2.531   3.119   3.098  0.2408  0.0932  0.0467
 1821SOL     OW 7286   2.282   3.215   3.030  0.4660  0.6381 -0.4421
 1821SOL    HW2 7287   2.264   3.307   3.048 -1.2867  0.6333 -1.9810
 1821SOL    HW3 7288   2.204   3.169   3.062  0.4287 -0.0794 -1.5407
 1821SOL    MW4 7289   2.269   3.221   3.037  0.2298  0.5429 -0.7901
 1822SOL     OW 7290   2.229   3.475   3.102 -0.0228 -0.6804 -0.5236
 1822SOL    HW2 7291   2.302   3.514   3.055 -0.6422 -0.5164 -1.3624
 1822SOL    HW3 7292   2.151   3.509   3.058 -0.5912 -1.7048 -0.3338
 1822SOL    MW4 7293   2.228   3.484   3.090 -0.1798 -0.7939 -0.6092
 1823SOL     OW 7294   2.430   3.617   2.967  0.0257  0.5948  0.0666
 1823SOL    HW2 7295   2.509   3.570   2.994  0.3669  0.1794 -1.5725
 1823SOL    HW3 7296   2.431   3.698   3.018  1.3620  0.4679  0.2517
 1823SOL    MW4 7297   2.440   3.621   2.977  0.2470  0.5233 -0.1252
 1824SOL     OW 7298   2.472   3.872   3.105  0.5908  0.3006 -0.2208
 1824SOL    HW2 7299   2.477   3.869   3.200 -0.6133  3.0605 -0.0175
 1824SOL    HW3 7300   2.556   3.910   3.078  1.1508 -0.9776 -0.3265
 1824SOL    MW4 7301   2.484   3.877   3.114  0.5057  0.4961 -0.2081
 1825SOL     OW 7302   2.234   4.020   3.023 -0.4030 -0.0182  0.3432
 1825SOL    HW2 7303   2.308   3.965   3.052 -1.5425 -0.7917  1.8698
 1825SOL    HW3 7304   2.156   3.972   3.053 -1.5263  0.8090 -1.2220
 1825SOL    MW4 7305   2.234   4.006   3.031 -0.7014 -0.0110  0.3381
 1826SOL     OW 7306   2.194   4.268   3.154 -0.3139  0.2557  0.1117
 1826SOL    HW2 7307   2.215   4.179   3.125 -2.3720 -1.3416  3.3243
 1826SOL    HW3 7308   2.103   4.281   3.127 -1.1232  0.0531  2.6490
 1826SOL    MW4 7309   2.185   4.258   3.146 -0.6924  0.0181  0.8705
 1827SOL     OW 7310   2.444   4.374   3.057  0.1259  0.1367 -0.0365
 1827SOL    HW2 7311   2.361   4.333   3.083  0.0873  1.0569  1.3293
 1827SOL    HW3 7312   2.437   4.381   2.962 -1.3709  0.2017  0.0578
 1827SOL    MW4 7313   2.432   4.369   3.048 -0.0768  0.2666  0.1559
 1828SOL     OW 7314   2.885   0.037   3.107 -0.1340 -0.3232 -0.2319
 1828SOL    HW2 7315   2.970   0.064   3.073 -0.6642  1.9756  0.2367
 1828SOL    HW3 7316   2.882  -0.058   3.091  1.9095 -0.1877 -1.5382
 1828SOL    MW4 7317   2.896   0.028   3.100  0.0653 -0.0020 -0.3424
 1829SOL     OW 7318   2.640   0.127   3.002  0.0115 -0.1966 -0.4727
 1829SOL    HW2 7319   2.721   0.091   3.039  0.2296  0.2470 -0.5224
 1829SOL    HW3 7320   2.571   0.073   3.039  0.3653 -0.8654 -0.7749
 1829SOL    MW4 7321   2.642   0.115   3.012  0.0870 -0.2263 -0.5190
 1830SOL     OW 7322   2.630   0.388   3.084 -0.4513 -0.2618  0.0105
 1830SOL    HW2 7323   2.637   0.298   3.050  0.0144  0.1688 -1.0833
 1830SOL    HW3 7324   2.544   0.418   3.055  0.5784  0.6603 -2.2570
 1830SOL    MW4 7325   2.620   0.380   3.076 -0.2542 -0.0834 -0.4330
 1831SOL     OW 7326   2.875   0.466   2.984  0.1474 -0.2402  0.1068
 1831SOL    HW2 7327   2.799   0.418   3.016  0.1098  0.1549  0.6087
 1831SOL    HW3 7328   2.872   0.456   2.889 -1.0789  0.6111  0.0506
 1831SOL    MW4 7329   2.865   0.458   2.976 -0.0196 -0.0758  0.1659
 1832SOL     OW 7330   2.930   0.741   3.051  0.6085 -0.0375 -0.1523
 1832SOL    HW2 7331   2.924   0.736   3.146  1.0130 -1.6825 -0.1989
 1832SOL    HW3 7332   2.922   0.650   3.021  0.8779  0.4150 -1.6644
 1832SOL    MW4 7333   2.928   0.728   3.059  0.6976 -0.1948 -0.3579
 1833SOL     OW 7334   2.683   0.868   2.998 -0.0694 -0.2300 -0.4275
 1833SOL    HW2 7335   2.692   0.961   3.018 -1.6685 -0.3378  0.9424
 1833SOL    HW3 7336   2.772   0.833   3.007  0.2945  0.8970  0.5645
 1833SOL    MW4 7337   2.696   0.876   3.002 -0.2322 -0.0955 -0.1159
 1834SOL     OW 7338   2.719   1.127   3.069  0.2577  0.2266 -0.1656
 1834SOL    HW2 7339   2.802   1.173   3.052 -0.2909  1.3516  0.1539
 1834SOL    HW3 7340   2.652   1.195   3.062 -0.5856 -0.5581  0.1885
 1834SOL    MW4 7341   2.721   1.142   3.066  0.0741  0.2714 -0.0765
 1835SOL     OW 7342   2.933   1.289   3.006  0.0345  0.0175 -0.0721
 1835SOL    HW2 7343   3.019   1.250   3.021  0.3474 -0.1704 -2.2030
 1835SOL    HW3 7344   2.937   1.373   3.052  0.5387 -0.9623  1.7302
 1835SOL    MW4 7345   2.945   1.295   3.014  0.1423 -0.1366 -0.1152
 1836SOL     OW 7346   2.923   1.569   3.110  0.1485  0.0949  0.1160
 1836SOL    HW2 7347   2.928   1.594   3.202  1.1292  0.2937  0.0143
 1836SOL    HW3 7348   3.003   1.604   3.071 -1.0436  1.4692 -1.1774
 1836SOL    MW4 7349   2.934   1.577   3.117  0.1209  0.3024 -0.0677
 1837SOL     OW 7350   2.712   1.730   3.020  0.7171 -0.1830  0.5084
 1837SOL    HW2 7351   2.785   1.677   3.051 -0.5253 -1.5152  1.2261
 1837SOL    HW3 7352   2.636   1.673   3.027 -0.3838  1.1404 -0.3362
 1837SOL    MW4 7353   2.711   1.716   3.025  0.4075 -0.1841  0.4916
 1838SOL     OW 7354   2.704   2.001   3.095  0.2414 -0.3096  0.8531
 1838SOL    HW2 7355   2.790   2.028   3.064 -0.3754  1.0306  0.2507
 1838SOL    HW3 7356   2.698   1.908   3.071  1.2634 -0.2447  0.3197
 1838SOL    MW4 7357   2.714   1.992   3.088  0.2947 -0.1242  0.7036
 1839SOL     OW 7358   2.957   2.059   3.011  0.0332 -0.2551 -0.0530
 1839SOL    HW2 7359   2.936   2.151   3.028  0.3111 -0.1280 -0.3788
 1839SOL    HW3 7360   2.950   2.050   2.916 -1.2265 -0.8838  0.0984
 1839SOL    MW4 7361   2.954   2.070   3.001 -0.0963 -0.3214 -0.0761
 1840SOL     OW 7362   2.898   2.324   3.068  0.6847  0.2281  0.0508
 1840SOL    HW2 7363   2.981   2.367   3.047  2.0650 -2.1013  0.5783
 1840SOL    HW3 7364   2.831   2.385   3.036  2.5848  1.8850 -0.9101
 1840SOL    MW4 7365   2.900   2.337   3.061  1.1175  0.1395 -0.0067
 1841SOL     OW 7366   2.700   2.491   2.971  0.3008 -0.5581 -0.3103
 1841SOL    HW2 7367   2.722   2.568   3.023 -0.3807 -0.5960  0.0394
 1841SOL    HW3 7368   2.634   2.445   3.022  0.2790 -1.0697 -0.7895
 1841SOL    MW4 7369   2.694   2.495   2.984  0.2081 -0.6306 -0.3273
 1842SOL     OW 7370   2.726   2.718   3.131 -0.2394  0.9909 -0.0346
 1842SOL    HW2 7371   2.737   2.715   3.226 -0.1842 -0.0696 -0.0654
 1842SOL    HW3 7372   2.636   2.746   3.118 -0.0772  1.6838  0.3242
 1842SOL    MW4 7373   2.716   2.721   3.142 -0.2108  0.9425  0.0086
 1843SOL     OW 7374   2.921   2.859   2.966 -0.0803  0.2909 -0.0082
 1843SOL    HW2 7375   3.004   2.823   2.995 -0.1426 -0.8634 -1.2057
 1843SOL    HW3 7376   2.855   2.799   3.003 -0.3063  0.4766 -0.1114
 1843SOL    MW4 7377   2.923   2.846   2.975 -0.1183  0.1633 -0.1798
 1844SOL     OW 7378   2.923   3.092   3.118  0.4229  0.2474 -0.0209
 1844SOL    HW2 7379   2.873   3.155   3.066  0.1630 -0.3718 -0.5118
 1844SOL    HW3 7380   2.906   3.007   3.078  0.4454 -0.1992  0.8992
 1844SOL    MW4 7381   2.914   3.089   3.106  0.3912  0.1070  0.0358
 1845SOL     OW 7382   2.735   3.252   2.985  0.0683 -0.2382 -0.3109
 1845SOL    HW2 7383   2.704   3.338   3.013  0.9501  0.2726 -0.8807
 1845SOL    HW3 7384   2.736   3.257   2.889 -2.1213 -1.6888 -0.4601
 1845SOL    MW4 7385   2.731   3.264   2.976 -0.1042 -0.3622 -0.4053
 1846SOL     OW 7386   2.658   3.489   3.082  0.2831 -0.7508 -0.2414
 1846SOL    HW2 7387   2.672   3.472   3.175  0.3597 -0.7714 -0.2569
 1846SOL    HW3 7388   2.737   3.535   3.054 -0.3330  0.5048  0.0286
 1846SOL    MW4 7389   2.670   3.493   3.091  0.2117 -0.5879 -0.2077
 1847SOL     OW 7390   2.918   3.599   2.977 -0.0393 -0.0235 -0.1609
 1847SOL    HW2 7391   2.993   3.566   3.026  0.1614 -0.3658 -0.6967
 1847SOL    HW3 7392   2.917   3.693   2.994  0.1478 -0.1105  0.3367
 1847SOL    MW4 7393   2.928   3.607   2.986  0.0119 -0.0803 -0.1657
 1848SOL     OW 7394   2.926   3.859   3.083  0.2326  0.0991  0.3526
 1848SOL    HW2 7395   2.935   3.860   3.179 -0.3231 -0.4529  0.4194
 1848SOL    HW3 7396   2.843   3.903   3.067  0.5124  0.5303  0.0986
 1848SOL    MW4 7397   2.916   3.865   3.094  0.1962  0.0830  0.3276
 1849SOL     OW 7398   2.693   3.966   2.996 -0.3803 -0.4128 -0.0536
 1849SOL    HW2 7399   2.688   4.055   3.032  0.6319 -0.3830  0.0206
 1849SOL    HW3 7400   2.690   3.978   2.901  0.6272 -0.2460 -0.0589
 1849SOL    MW4 7401   2.692   3.979   2.989 -0.1140 -0.3870 -0.0443
 1850SOL     OW 7402   2.667   4.218   3.128  0.1918  0.3658  0.4304
 1850SOL    HW2 7403   2.688   4.243   3.218  0.5056 -0.2671  0.5391
 1850SOL    HW3 7404   2.588   4.268   3.107  2.0262  3.1356 -0.1509
 1850SOL    MW4 7405   2.659   4.228   3.137  0.4752  0.6471  0.3681
 1851SOL     OW 7406   2.854   4.428   3.033 -0.2713  0.2543 -0.3763
 1851SOL    HW2 7407   2.939   4.393   3.060 -0.1034  0.5980 -0.4527
 1851SOL    HW3 7408   2.790   4.365   3.066  0.0190 -0.0339 -0.3686
 1851SOL    MW4 7409   2.857   4.415   3.041 -0.2110  0.2618 -0.3853
 1852SOL     OW 7410   3.362   4.657   3.145  0.0427  0.2560  0.4064
 1852SOL    HW2 7411   3.427   4.705   3.094 -0.4599  0.2238 -0.2753
 1852SOL    HW3 7412   3.354   4.573   3.100  1.9194 -1.0253  2.3765
 1852SOL    MW4 7413   3.370   4.652   3.132  0.2241  0.0825  0.5765
 1853SOL     OW 7414   3.139   0.075   2.993 -0.2374 -0.4830 -0.5564
 1853SOL    HW2 7415   3.131   0.164   3.029 -3.2042 -1.0245  0.2275
 1853SOL    HW3 7416   3.221   0.042   3.031  0.2403  1.4621  0.1693
 1853SOL    MW4 7417   3.149   0.082   3.003 -0.5658 -0.2978 -0.3572
 1854SOL     OW 7418   3.086   0.334   3.098  0.2895 -0.1290  0.1308
 1854SOL    HW2 7419   3.162   0.384   3.069 -0.1583 -0.5067 -1.7782
 1854SOL    HW3 7420   3.012   0.373   3.050 -0.6913  0.0562  1.7508
 1854SOL    MW4 7421   3.086   0.346   3.088  0.1009 -0.1544  0.0925
 1855SOL     OW 7422   3.331   0.440   3.021 -0.0019  0.5613 -0.0593
 1855SOL    HW2 7423   3.419   0.418   3.052  0.1211  1.4437  0.2294
 1855SOL    HW3 7424   3.344   0.469   2.931  0.3817  3.2465  0.8062
 1855SOL    MW4 7425   3.345   0.441   3.013  0.0648  1.0320  0.0930
 1856SOL     OW 7426   3.362   0.745   3.090  0.3867  0.1221  0.1416
 1856SOL    HW2 7427   3.357   0.746   3.186 -1.2578 -0.4650  0.0714
 1856SOL    HW3 7428   3.336   0.656   3.066  0.8892  0.2390 -0.8636
 1856SOL    MW4 7429   3.358   0.733   3.100  0.2363  0.0600 -0.0005
 1857SOL     OW 7430   3.140   0.889   2.961  0.0415 -0.3592 -0.1202
 1857SOL    HW2 7431   3.211   0.853   3.014  0.2557  0.7576  0.3594
 1857SOL    HW3 7432   3.062   0.842   2.990  0.1690  0.1897  1.1486
 1857SOL    MW4 7433   3.139   0.878   2.972  0.0863 -0.1394  0.1106
 1858SOL     OW 7434   3.168   1.164   3.058 -0.6267  0.5032 -0.4564
 1858SOL    HW2 7435   3.256   1.198   3.040  0.0524  0.1239  1.9580
 1858SOL    HW3 7436   3.160   1.087   3.003  1.0987 -0.2325  0.2825
 1858SOL    MW4 7437   3.179   1.159   3.048 -0.3095  0.3561 -0.0403
 1859SOL     OW 7438   3.421   1.271   2.954 -0.4774  0.0753 -0.3539
 1859SOL    HW2 7439   3.484   1.231   3.015 -0.3993 -0.1143 -0.5579
 1859SOL    HW3 7440   3.404   1.358   2.991  0.5471  0.4481 -0.7497
 1859SOL    MW4 7441   3.427   1.277   2.967 -0.3319  0.0994 -0.4332
 1860SOL     OW 7442   3.392   1.525   3.050 -0.5156 -0.1428  0.0947
 1860SOL    HW2 7443   3.416   1.518   3.142 -1.3313  0.7619  0.3885
 1860SOL    HW3 7444   3.454   1.588   3.013 -0.3269 -0.3393  0.0769
 1860SOL    MW4 7445   3.403   1.532   3.057 -0.5982 -0.0494  0.1307
 1861SOL     OW 7446   3.181   1.678   3.013  0.1932 -0.0741 -0.3083
 1861SOL    HW2 7447   3.255   1.622   3.037  0.5465  0.4949 -0.0778
 1861SOL    HW3 7448   3.174   1.670   2.918  1.2769  0.7816 -0.4705
 1861SOL    MW4 7449   3.190   1.669   3.004  0.3829  0.1140 -0.2990
 1862SOL     OW 7450   3.192   1.926   3.106 -0.0493 -0.1293 -1.0093
 1862SOL    HW2 7451   3.199   1.840   3.065 -1.1051 -0.4177 -0.5777
 1862SOL    HW3 7452   3.119   1.968   3.061 -2.7148 -1.2857  2.0337
 1862SOL    MW4 7453   3.183   1.920   3.094 -0.5405 -0.3200 -0.5507
 1863SOL     OW 7454   3.377   2.107   3.004  0.0071  0.1542 -0.0260
 1863SOL    HW2 7455   3.462   2.063   3.008  0.7583  1.3401 -2.3136
 1863SOL    HW3 7456   3.316   2.046   3.046  1.4119 -2.0705 -1.1345
 1863SOL    MW4 7457   3.380   2.094   3.010  0.2913  0.0169 -0.4740
 1864SOL     OW 7458   3.360   2.375   3.080  0.0401 -0.1132 -0.0947
 1864SOL    HW2 7459   3.366   2.355   3.173  1.6082  0.8057  0.0237
 1864SOL    HW3 7460   3.375   2.291   3.037 -0.6770 -0.5384  0.4701
 1864SOL    MW4 7461   3.363   2.361   3.087  0.1526 -0.0479 -0.0045
 1865SOL     OW 7462   3.123   2.468   2.982  0.4549  0.3301 -0.2265
 1865SOL    HW2 7463   3.191   2.414   3.023  0.7490  0.3954 -0.6229
 1865SOL    HW3 7464   3.134   2.452   2.888  0.1066  0.5634 -0.3057
 1865SOL    MW4 7465   3.134   2.459   2.975  0.4480  0.3695 -0.2892
 1866SOL     OW 7466   3.145   2.734   3.083  0.4595 -0.0706  0.0907
 1866SOL    HW2 7467   3.165   2.720   3.176 -0.9528 -1.0748  0.2540
 1866SOL    HW3 7468   3.133   2.646   3.048  2.3852  0.2277 -1.3837
 1866SOL    MW4 7469   3.146   2.720   3.091  0.5271 -0.1638 -0.0823
 1867SOL     OW 7470   3.393   2.840   3.027 -0.2045 -0.3142 -0.3365
 1867SOL    HW2 7471   3.400   2.934   3.045  0.5950 -0.5244  0.4351
 1867SOL    HW3 7472   3.301   2.819   3.046  0.2453 -0.2196  2.0001
 1867SOL    MW4 7473   3.381   2.850   3.032 -0.0396 -0.3295  0.0734
 1868SOL     OW 7474   3.427   3.111   3.120  0.1192 -0.4751 -0.6259
 1868SOL    HW2 7475   3.429   3.113   3.216  0.3227 -0.5318 -0.6276
 1868SOL    HW3 7476   3.343   3.149   3.097  0.5390  0.5738 -0.4504
 1868SOL    MW4 7477   3.416   3.116   3.130  0.2015 -0.3443 -0.6030
 1869SOL     OW 7478   3.162   3.201   3.038  0.0333  0.4605 -0.5891
 1869SOL    HW2 7479   3.084   3.155   3.068  1.2704 -1.4773 -0.2547
 1869SOL    HW3 7480   3.150   3.208   2.943 -0.6610  0.3748 -0.5096
 1869SOL    MW4 7481   3.150   3.196   3.029  0.1049  0.1934 -0.5343
 1870SOL     OW 7482   3.141   3.485   3.110  0.2339  0.0314 -0.0118
 1870SOL    HW2 7483   3.222   3.524   3.075  1.0789 -0.6502  1.1539
 1870SOL    HW3 7484   3.136   3.399   3.068  0.2538 -0.0370  0.1274
 1870SOL    MW4 7485   3.151   3.479   3.100  0.3481 -0.0675  0.1605
 1871SOL     OW 7486   3.372   3.602   3.017 -0.0036 -0.3014  0.2453
 1871SOL    HW2 7487   3.459   3.579   3.049 -0.8030 -0.2098  2.5161
 1871SOL    HW3 7488   3.366   3.697   3.029 -1.2526 -0.6184  2.1937
 1871SOL    MW4 7489   3.383   3.612   3.023 -0.2739 -0.3312  0.8018
 1872SOL     OW 7490   3.331   3.872   3.047 -0.0576  0.1459 -0.0813
 1872SOL    HW2 7491   3.327   3.864   3.142 -0.9194 -0.6164 -0.1717
 1872SOL    HW3 7492   3.252   3.920   3.023 -0.5865 -0.9493 -0.5403
 1872SOL    MW4 7493   3.320   3.877   3.056 -0.2410 -0.0994 -0.1538
 1873SOL     OW 7494   3.116   4.063   3.003  0.1695 -0.1139 -0.5354
 1873SOL    HW2 7495   3.040   4.016   3.036 -0.6509  1.2061 -0.4994
 1873SOL    HW3 7496   3.114   4.051   2.909 -0.2175  0.1102 -0.5546
 1873SOL    MW4 7497   3.106   4.055   2.995  0.0103  0.0896 -0.5331
 1874SOL     OW 7498   3.097   4.317   3.107  0.3426  0.1184  0.0814
 1874SOL    HW2 7499   3.106   4.307   3.202  1.2932  1.4511  0.1474
 1874SOL    HW3 7500   3.129   4.234   3.071  1.2445  0.1173  0.8747
 1874SOL    MW4 7501   3.103   4.305   3.115  0.5872  0.2937  0.1948
 1875SOL     OW 7502   3.326   4.431   2.993 -0.0228  0.1136  0.5183
 1875SOL    HW2 7503   3.398   4.377   3.026 -0.5833  0.6411  2.6911
 1875SOL    HW3 7504   3.249   4.400   3.040 -0.5639  1.9578  0.8881
 1875SOL    MW4 7505   3.326   4.420   3.004 -0.1681  0.4263  0.8540
 1876SOL     OW 7506   3.812   4.652   3.146  0.3048  0.3130  0.0901
 1876SOL    HW2 7507   3.817   4.558   3.126  1.3115  0.1785  0.9339
 1876SOL    HW3 7508   3.726   4.678   3.114 -0.9521 -1.4086  1.9548
 1876SOL    MW4 7509   3.801   4.643   3.139  0.2718  0.0682  0.4473
 1877SOL     OW 7510   3.605   0.105   3.007  0.0127  0.5020 -0.1410
 1877SOL    HW2 7511   3.620   0.194   3.037  0.1677  0.8072 -1.1015
 1877SOL    HW3 7512   3.610   0.111   2.912  2.2015 -0.9062 -0.1537
 1877SOL    MW4 7513   3.608   0.117   2.998  0.3221  0.3565 -0.2692
 1878SOL     OW 7514   3.591   0.373   3.112 -0.0403  0.0893  0.0455
 1878SOL    HW2 7515   3.587   0.390   3.206  2.3720 -1.7724  0.5507
 1878SOL    HW3 7516   3.649   0.440   3.078 -0.9883  0.8203 -0.1340
 1878SOL    MW4 7517   3.598   0.384   3.120  0.1528 -0.0599  0.0887
 1879SOL     OW 7518   3.795   0.527   2.996  0.2739 -0.2312  0.0744
 1879SOL    HW2 7519   3.866   0.485   3.045 -0.0950  1.2097  1.9148
 1879SOL    HW3 7520   3.791   0.616   3.032 -1.6640  0.0933 -0.8874
 1879SOL    MW4 7521   3.804   0.533   3.007 -0.0305  0.0017  0.1900
 1880SOL     OW 7522   3.800   0.765   3.136  0.2743  0.0771  0.1325
 1880SOL    HW2 7523   3.815   0.739   3.227 -0.4495  0.6620  0.4259
 1880SOL    HW3 7524   3.883   0.803   3.107  0.2388  0.6902  0.8300
 1880SOL    MW4 7525   3.813   0.767   3.144  0.1745  0.2352  0.2632
 1881SOL     OW 7526   3.600   0.911   3.015 -0.2071 -0.0589 -0.7564
 1881SOL    HW2 7527   3.669   0.857   3.053 -0.4662 -0.0754 -0.2967
 1881SOL    HW3 7528   3.519   0.862   3.032 -0.5450  0.8885  0.4672
 1881SOL    MW4 7529   3.598   0.898   3.022 -0.2859  0.0640 -0.5343
 1882SOL     OW 7530   3.608   1.177   3.128 -0.7023 -0.4504 -0.0610
 1882SOL    HW2 7531   3.689   1.223   3.104 -1.1284  0.0142 -0.5922
 1882SOL    HW3 7532   3.628   1.085   3.110  0.2383 -0.5336  1.2487
 1882SOL    MW4 7533   3.622   1.171   3.122 -0.6347 -0.4001  0.0417
 1883SOL     OW 7534   3.836   1.286   3.014 -0.3598 -0.0071  0.3840
 1883SOL    HW2 7535   3.827   1.380   3.028 -0.9244 -0.1730  1.1555
 1883SOL    HW3 7536   3.829   1.275   2.919 -0.3426  0.7167  0.2982
 1883SOL    MW4 7537   3.834   1.297   3.003 -0.4320  0.0665  0.4745
 1884SOL     OW 7538   3.819   1.543   3.078  0.0765 -0.8499  0.3985
 1884SOL    HW2 7539   3.814   1.536   3.174 -0.5968  1.3352  0.5315
 1884SOL    HW3 7540   3.736   1.583   3.052  1.2749  0.8507 -0.8801
 1884SOL    MW4 7541   3.807   1.547   3.087  0.1457 -0.3372  0.2472
 1885SOL     OW 7542   3.602   1.677   2.964 -0.2860  0.2309 -0.5614
 1885SOL    HW2 7543   3.588   1.764   3.001  0.2541  0.6212 -1.2419
 1885SOL    HW3 7544   3.636   1.695   2.876 -0.3531 -0.6698 -0.7694
 1885SOL    MW4 7545   3.605   1.691   2.957 -0.2236  0.1637 -0.6788
 1886SOL     OW 7546   3.573   1.912   3.073 -0.0915 -0.1001 -0.5011
 1886SOL    HW2 7547   3.566   1.894   3.167  2.6321 -1.3608 -0.5003
 1886SOL    HW3 7548   3.661   1.948   3.061 -0.4029  0.0589 -2.5703
 1886SOL    MW4 7549   3.583   1.914   3.084  0.2270 -0.2455 -0.7741
 1887SOL     OW 7550   3.825   2.062   3.027 -0.0356 -0.3713 -0.2242
 1887SOL    HW2 7551   3.817   2.150   3.065  1.0318 -1.2783  2.2074
 1887SOL    HW3 7552   3.853   2.078   2.936  0.9651  1.8066  0.4233
 1887SOL    MW4 7553   3.828   2.076   3.020  0.2372 -0.2038  0.1822
 1888SOL     OW 7554   3.797   2.329   3.129 -0.7953  0.3529  0.4859
 1888SOL    HW2 7555   3.775   2.335   3.222  0.3797 -0.5646  0.8401
 1888SOL    HW3 7556   3.724   2.372   3.084 -2.6860 -1.4988  1.6642
 1888SOL    MW4 7557   3.784   2.336   3.135 -0.8895 -0.0122  0.6878
 1889SOL     OW 7558   3.605   2.472   3.004 -0.2935  0.2996  0.6621
 1889SOL    HW2 7559   3.603   2.559   3.045  0.4162  0.4014  0.4764
 1889SOL    HW3 7560   3.515   2.440   3.012 -0.7871  1.4634 -0.1446
 1889SOL    MW4 7561   3.593   2.479   3.011 -0.2649  0.4663  0.5312
 1890SOL     OW 7562   3.590   2.697   3.151 -0.6246  0.2451 -0.5202
 1890SOL    HW2 7563   3.671   2.742   3.125 -1.2167  0.8713 -1.3252
 1890SOL    HW3 7564   3.520   2.755   3.121 -1.3739  1.1194  2.7486
 1890SOL    MW4 7565   3.591   2.710   3.143 -0.8016  0.4432 -0.1950
 1891SOL     OW 7566   3.822   2.851   3.058 -0.3366  0.3254  0.3881
 1891SOL    HW2 7567   3.806   2.943   3.077 -1.0675  0.2437  0.1774
 1891SOL    HW3 7568   3.822   2.846   2.963 -0.6024  0.0537  0.4026
 1891SOL    MW4 7569   3.820   2.862   3.048 -0.4680  0.2787  0.3619
 1892SOL     OW 7570   3.839   3.129   3.091  0.5967 -0.0763 -0.2948
 1892SOL    HW2 7571   3.922   3.176   3.092  0.6240 -0.1181  1.4323
 1892SOL    HW3 7572   3.775   3.194   3.062  0.7675  0.8114  1.2802
 1892SOL    MW4 7573   3.841   3.144   3.087  0.6230  0.0353  0.1409
 1893SOL     OW 7574   3.624   3.266   3.009 -0.0917  0.0534 -0.2525
 1893SOL    HW2 7575   3.548   3.220   3.043  0.0574  0.6696  0.9797
 1893SOL    HW3 7576   3.611   3.269   2.914 -1.1217 -0.6721 -0.1412
 1893SOL    MW4 7577   3.612   3.261   3.001 -0.2079  0.0391 -0.0753
 1894SOL     OW 7578   3.622   3.516   3.127 -0.1826  0.1937 -0.1233
 1894SOL    HW2 7579   3.705   3.558   3.104  0.4259 -0.6959  0.4446
 1894SOL    HW3 7580   3.628   3.429   3.088 -0.3786 -0.2767  0.9009
 1894SOL    MW4 7581   3.634   3.510   3.119 -0.1280  0.0141  0.0863
 1895SOL     OW 7582   3.859   3.619   3.037  0.0347  0.2824  0.0469
 1895SOL    HW2 7583   3.845   3.712   3.056  0.5389  0.7871 -1.8986
 1895SOL    HW3 7584   3.848   3.612   2.942  1.4853 -1.3644 -0.0320
 1895SOL    MW4 7585   3.856   3.630   3.027  0.2925  0.1314 -0.2201
 1896SOL     OW 7586   3.796   3.904   3.133  0.0660 -0.2350  0.4564
 1896SOL    HW2 7587   3.798   3.918   3.227 -1.5643 -1.2402  0.6597
 1896SOL    HW3 7588   3.712   3.941   3.105  1.7252  2.5800 -1.0380
 1896SOL    MW4 7589   3.785   3.911   3.141  0.0701  0.0038  0.2863
 1897SOL     OW 7590   3.562   4.012   3.011  0.2797  0.0371  0.1448
 1897SOL    HW2 7591   3.486   3.957   3.031  0.7645 -0.9952 -0.7853
 1897SOL    HW3 7592   3.568   4.010   2.915  1.9622 -0.5750  0.2360
 1897SOL    MW4 7593   3.553   4.004   3.001  0.5655 -0.1798  0.0343
 1898SOL     OW 7594   3.535   4.275   3.129 -0.0249 -0.6206 -0.0509
 1898SOL    HW2 7595   3.611   4.318   3.089 -0.7560  0.7162 -0.0533
 1898SOL    HW3 7596   3.533   4.188   3.090  1.3040 -0.5409 -0.3128
 1898SOL    MW4 7597   3.544   4.269   3.119  0.0539 -0.4334 -0.0856
 1899SOL     OW 7598   3.781   4.395   3.045  0.1042  0.8129  0.5474
 1899SOL    HW2 7599   3.868   4.369   3.076  0.6905  0.4737 -1.2834
 1899SOL    HW3 7600   3.793   4.409   2.951 -1.4774  2.2895  0.5397
 1899SOL    MW4 7601   3.794   4.393   3.036 -0.0269  0.9637  0.3049
 1900SOL     OW 7602   4.268   0.023   3.099  0.3901  0.3060  0.0815
 1900SOL    HW2 7603   4.281   0.021   3.194  3.4735 -0.6137 -0.3019
 1900SOL    HW3 7604   4.260  -0.069   3.075 -0.2269  0.5323 -0.5741
 1900SOL    MW4 7605   4.268   0.011   3.109  0.7157  0.2145 -0.0556
 1901SOL     OW 7606   4.028   0.157   3.041  0.4160  0.0763 -0.0479
 1901SOL    HW2 7607   4.106   0.123   3.084 -0.3607  0.1655  1.4393
 1901SOL    HW3 7608   3.956   0.109   3.080 -0.3935  0.9113 -0.5007
 1901SOL    MW4 7609   4.029   0.146   3.052  0.2065  0.1982  0.0885
 1902SOL     OW 7610   4.015   0.421   3.120 -0.0343  0.1528 -0.0224
 1902SOL    HW2 7611   4.100   0.452   3.089  1.3933 -0.7601  2.8009
 1902SOL    HW3 7612   4.012   0.329   3.096 -0.0936  0.1236  0.0940
 1902SOL    MW4 7613   4.026   0.413   3.113  0.1464  0.0285  0.3653
 1903SOL     OW 7614   4.262   0.515   3.024 -0.1928  0.1713 -0.4458
 1903SOL    HW2 7615   4.270   0.602   3.063  0.6262  0.1170 -0.4833
 1903SOL    HW3 7616   4.271   0.530   2.930  0.3938 -0.0101 -0.4170
 1903SOL    MW4 7617   4.264   0.528   3.017 -0.0072  0.1403 -0.4473
 1904SOL     OW 7618   4.276   0.747   3.146 -0.0913 -0.1782  0.2053
 1904SOL    HW2 7619   4.199   0.783   3.104 -0.0799  0.6825  0.9054
 1904SOL    HW3 7620   4.348   0.802   3.116 -0.0816  0.4374  1.3154
 1904SOL    MW4 7621   4.276   0.759   3.137 -0.0882  0.0166  0.4437
 1905SOL     OW 7622   4.046   0.876   3.061 -0.1911 -0.3894 -0.2834
 1905SOL    HW2 7623   4.053   0.966   3.093 -0.7883 -0.0333 -1.1490
 1905SOL    HW3 7624   4.033   0.885   2.967 -0.6609 -1.3763 -0.3161
 1905SOL    MW4 7625   4.045   0.889   3.053 -0.3319 -0.4727 -0.4020
 1906SOL     OW 7626   4.061   1.164   3.091 -0.4143  0.1675 -0.0455
 1906SOL    HW2 7627   4.054   1.155   3.186  0.0855  0.3100  0.0057
 1906SOL    HW3 7628   3.982   1.210   3.065 -0.0382  1.1082  0.4347
 1906SOL    MW4 7629   4.050   1.169   3.100 -0.2990  0.3104  0.0248
 1907SOL     OW 7630   4.297   1.298   3.050 -0.3566 -0.3222 -0.0456
 1907SOL    HW2 7631   4.214   1.256   3.070  0.3776 -1.6544  0.2360
 1907SOL    HW3 7632   4.294   1.312   2.955 -1.7097  1.4390  0.2229
 1907SOL    MW4 7633   4.286   1.295   3.040 -0.4377 -0.2656  0.0269
 1908SOL     OW 7634   4.275   1.545   3.142  0.2996  0.1216 -0.3371
 1908SOL    HW2 7635   4.197   1.575   3.096 -0.9015 -0.7035  1.0988
 1908SOL    HW3 7636   4.289   1.456   3.109  1.5441  0.7974 -1.6981
 1908SOL    MW4 7637   4.267   1.537   3.132  0.3057  0.1017 -0.3271
 1909SOL     OW 7638   4.072   1.644   3.009 -0.7207 -0.0409 -0.3950
 1909SOL    HW2 7639   4.064   1.731   3.049 -1.4094  0.1176 -0.8615
 1909SOL    HW3 7640   3.991   1.599   3.033 -0.9064 -0.1289 -1.1567
 1909SOL    MW4 7641   4.060   1.650   3.017 -0.8354 -0.0316 -0.5572
 1910SOL     OW 7642   4.037   1.909   3.087 -0.1676  0.0383  0.1113
 1910SOL    HW2 7643   4.113   1.966   3.092  0.2109 -0.4199 -0.3684
 1910SOL    HW3 7644   3.963   1.969   3.070  0.0594  0.4946  0.7238
 1910SOL    MW4 7645   4.037   1.925   3.085 -0.0873  0.0381  0.1290
 1911SOL     OW 7646   4.277   2.048   3.080 -0.0514  0.3883 -0.1432
 1911SOL    HW2 7647   4.271   2.142   3.095 -0.7393  0.3062  0.1214
 1911SOL    HW3 7648   4.269   2.039   2.985 -0.5358  0.5643 -0.1227
 1911SOL    MW4 7649   4.275   2.059   3.069 -0.2060  0.4005 -0.1059
 1912SOL     OW 7650   4.246   2.307   3.104  0.0657 -0.0437  0.0671
 1912SOL    HW2 7651   4.179   2.364   3.067  0.2347  0.2425  0.2036
 1912SOL    HW3 7652   4.329   2.347   3.079  0.2173 -1.4811 -1.8079
 1912SOL    MW4 7653   4.248   2.320   3.096  0.1082 -0.1957 -0.1621
 1913SOL     OW 7654   4.018   2.459   3.016  0.0879 -0.1079 -0.1364
 1913SOL    HW2 7655   4.012   2.551   3.040 -0.1180  0.2370 -1.5191
 1913SOL    HW3 7656   3.941   2.418   3.056  0.6339  0.1358  1.2134
 1913SOL    MW4 7657   4.007   2.466   3.025  0.1330 -0.0303 -0.1404
 1914SOL     OW 7658   4.069   2.737   3.104  0.1414  0.3823 -0.0205
 1914SOL    HW2 7659   4.067   2.728   3.200 -0.8732 -0.5716 -0.1154
 1914SOL    HW3 7660   3.983   2.773   3.083 -0.0095 -0.3306 -0.6464
 1914SOL    MW4 7661   4.057   2.740   3.114 -0.0124  0.1624 -0.1156
 1915SOL     OW 7662   4.277   2.845   2.974 -0.7926  0.1864 -0.2152
 1915SOL    HW2 7663   4.203   2.796   3.008  0.1505 -0.6545  0.6598
 1915SOL    HW3 7664   4.354   2.805   3.015  0.1162  1.3174 -0.7703
 1915SOL    MW4 7665   4.277   2.833   2.984 -0.5488  0.2246 -0.1731
 1916SOL     OW 7666   4.250   3.092   3.115  0.4229 -0.1048  0.0695
 1916SOL    HW2 7667   4.179   3.134   3.066  0.0420 -0.6426  0.1480
 1916SOL    HW3 7668   4.254   3.003   3.079  1.3152  0.0416 -0.2020
 1916SOL    MW4 7669   4.241   3.086   3.104  0.4907 -0.1564  0.0441
 1917SOL     OW 7670   4.063   3.270   3.025 -0.0405 -0.2359 -0.1440
 1917SOL    HW2 7671   4.077   3.363   3.045  0.2891 -0.1324 -0.8407
 1917SOL    HW3 7672   4.080   3.263   2.931 -1.5815 -0.7099 -0.4148
 1917SOL    MW4 7673   4.067   3.281   3.015 -0.2003 -0.2849 -0.2716
 1918SOL     OW 7674   4.077   3.514   3.167  0.1629  0.3294 -0.2291
 1918SOL    HW2 7675   4.066   3.512   3.262  2.1569  0.0616  0.0199
 1918SOL    HW3 7676   4.003   3.567   3.135 -0.2491  0.8242  1.5074
 1918SOL    MW4 7677   4.066   3.521   3.175  0.3715  0.3593  0.0329
 1919SOL     OW 7678   4.266   3.686   3.025 -0.3896 -0.1670 -0.2533
 1919SOL    HW2 7679   4.272   3.770   3.070  2.6561 -0.5138  0.1367
 1919SOL    HW3 7680   4.200   3.637   3.074 -0.6894  1.2567  0.7909
 1919SOL    MW4 7681   4.258   3.691   3.037 -0.0277 -0.0248 -0.0639
 1920SOL     OW 7682   4.254   3.933   3.148 -0.2234  0.1954  0.2817
 1920SOL    HW2 7683   4.172   3.953   3.103 -0.6905 -0.6762  0.7276
 1920SOL    HW3 7684   4.321   3.977   3.097 -0.7143 -0.9600 -1.4065
 1920SOL    MW4 7685   4.252   3.941   3.135 -0.3495 -0.0720  0.1180
 1921SOL     OW 7686   4.029   4.020   3.036 -0.1572 -0.2592 -0.0686
 1921SOL    HW2 7687   4.026   4.111   3.067 -1.0965 -0.0924 -0.6119
 1921SOL    HW3 7688   3.948   3.981   3.070 -0.0101 -0.7458 -0.2743
 1921SOL    MW4 7689   4.018   4.027   3.044 -0.2618 -0.3014 -0.1676
 1922SOL     OW 7690   4.043   4.288   3.125  0.3194 -0.4014  0.2043
 1922SOL    HW2 7691   4.033   4.275   3.219  0.0776 -0.1593  0.2113
 1922SOL    HW3 7692   4.132   4.323   3.115  0.3401 -0.4150  0.3441
 1922SOL    MW4 7693   4.054   4.291   3.136  0.2899 -0.3710  0.2236
 1923SOL     OW 7694   4.282   4.418   3.033  0.4612 -0.8099 -0.0464
 1923SOL    HW2 7695   4.353   4.363   3.067 -0.5522 -1.5361  0.9272
 1923SOL    HW3 7696   4.280   4.399   2.939  1.1107 -1.2925  0.0329
 1923SOL    MW4 7697   4.291   4.408   3.025  0.4134 -0.9694  0.0925
 1924SOL     OW 7698   0.233   0.010   3.386  0.3777  0.1083 -0.1716
 1924SOL    HW2 7699   0.307   0.058   3.422  0.2935  1.1040 -1.2793
 1924SOL    HW3 7700   0.250  -0.082   3.407  2.6244  0.1595 -1.6245
 1924SOL    MW4 7701   0.245   0.004   3.394  0.6630  0.2460 -0.5093
 1925SOL     OW 7702   0.019   0.116   3.515 -0.2263  0.0300  0.5384
 1925SOL    HW2 7703   0.032   0.208   3.491  0.0755 -0.0186  0.5172
 1925SOL    HW3 7704   0.094   0.071   3.477  0.0161 -0.1166  1.1963
 1925SOL    MW4 7705   0.031   0.122   3.507 -0.1545  0.0043  0.6223
 1926SOL     OW 7706   0.041   0.376   3.421  0.2030 -0.0635 -0.6937
 1926SOL    HW2 7707  -0.034   0.421   3.460 -0.2927 -0.2933 -1.3748
 1926SOL    HW3 7708   0.117   0.410   3.468 -0.4381 -0.8513  0.9715
 1926SOL    MW4 7709   0.041   0.386   3.432  0.0530 -0.1978 -0.5641
 1927SOL     OW 7710   0.267   0.510   3.541 -0.0476  0.1330  0.1522
 1927SOL    HW2 7711   0.335   0.471   3.486  0.1183 -1.2630  1.3165
 1927SOL    HW3 7712   0.246   0.593   3.498  2.7400  0.8250  0.0820
 1927SOL    MW4 7713   0.273   0.516   3.528  0.3421  0.0401  0.2964
 1928SOL     OW 7714   0.219   0.759   3.438  0.0677 -0.0997 -0.2503
 1928SOL    HW2 7715   0.294   0.815   3.460  0.3225  0.0829 -1.5662
 1928SOL    HW3 7716   0.142   0.814   3.452  0.1896 -0.1755  0.7540
 1928SOL    MW4 7717   0.219   0.773   3.443  0.1174 -0.0856 -0.2913
 1929SOL     OW 7718   4.490   0.895   3.505  0.0481  0.0719  0.0205
 1929SOL    HW2 7719   4.517   0.894   3.597  0.3947 -0.8338 -0.0866
 1929SOL    HW3 7720   4.493   0.987   3.481 -1.1381  0.4406  1.2332
 1929SOL    MW4 7721   4.494   0.907   3.514 -0.0625  0.0011  0.1664
 1930SOL     OW 7722   4.464   1.158   3.433 -0.6513 -0.2350 -0.1414
 1930SOL    HW2 7723   4.544   1.198   3.465 -2.4556  2.5917  0.9971
 1930SOL    HW3 7724   4.463   1.176   3.339  0.8060 -1.7020 -0.4550
 1930SOL    MW4 7725   4.474   1.166   3.425 -0.6971 -0.0557 -0.0327
 1931SOL     OW 7726   0.213   1.290   3.507  0.0299 -0.2933  0.0892
 1931SOL    HW2 7727   0.281   1.227   3.483  0.5920  0.1186  0.5815
 1931SOL    HW3 7728   0.229   1.366   3.450 -2.0330 -1.4387 -2.1163
 1931SOL    MW4 7729   0.224   1.292   3.496 -0.1681 -0.3901 -0.1371
 1932SOL     OW 7730   0.255   1.538   3.390  0.1844 -0.0082  0.1311
 1932SOL    HW2 7731   0.339   1.577   3.415  0.2309  0.5027 -0.7993
 1932SOL    HW3 7732   0.261   1.528   3.295 -0.4341 -0.8586  0.1787
 1932SOL    MW4 7733   0.267   1.542   3.381  0.1089 -0.0532  0.0145
 1933SOL     OW 7734   0.024   1.664   3.484  0.4032 -0.2919  0.2281
 1933SOL    HW2 7735  -0.053   1.621   3.448 -0.6433  1.8481 -0.1622
 1933SOL    HW3 7736   0.098   1.611   3.453 -0.7776 -1.2671 -0.9858
 1933SOL    MW4 7737   0.023   1.652   3.475  0.1093 -0.1382  0.0162
 1934SOL     OW 7738   4.454   1.937   3.435  0.0543 -0.5773  0.3764
 1934SOL    HW2 7739   4.469   1.843   3.448 -2.2056 -1.0184  0.1140
 1934SOL    HW3 7740   4.454   1.949   3.340  3.4968  0.2977  0.4271
 1934SOL    MW4 7741   4.456   1.926   3.424  0.2103 -0.5200  0.3483
 1935SOL     OW 7742   0.222   2.047   3.469  0.2571 -0.8038  0.3578
 1935SOL    HW2 7743   0.261   2.020   3.552  0.0823 -0.3533  0.5887
 1935SOL    HW3 7744   0.140   1.998   3.464  0.6156 -1.3749  0.1092
 1935SOL    MW4 7745   0.216   2.037   3.480  0.2814 -0.8197  0.3555
 1936SOL     OW 7746   0.249   2.313   3.412 -0.3091  0.4969  0.1277
 1936SOL    HW2 7747   0.167   2.356   3.437 -1.0709 -0.5911 -0.4415
 1936SOL    HW3 7748   0.231   2.220   3.423  1.1824  0.2862  0.9467
 1936SOL    MW4 7749   0.235   2.306   3.417 -0.2128  0.3257  0.1607
 1937SOL     OW 7750   0.023   2.448   3.462 -0.1223 -0.1893 -0.5572
 1937SOL    HW2 7751   0.015   2.442   3.557  0.3934 -0.4458 -0.5277
 1937SOL    HW3 7752  -0.057   2.408   3.428 -0.4710  0.2271 -0.2267
 1937SOL    MW4 7753   0.011   2.442   3.470 -0.1003 -0.1681 -0.5100
 1938SOL     OW 7754   0.001   2.712   3.391 -0.4408 -0.3717  0.0391
 1938SOL    HW2 7755   0.078   2.747   3.435 -0.4966 -0.6307  0.3490
 1938SOL    HW3 7756  -0.001   2.620   3.418 -0.4620 -0.5345 -0.5261
 1938SOL    MW4 7757   0.011   2.704   3.401 -0.4509 -0.4272  0.0052
 1939SOL     OW 7758   0.214   2.818   3.505 -0.4701  0.0396  0.5520
 1939SOL    HW2 7759   0.290   2.779   3.461  0.3271  0.8042  1.2230
 1939SOL    HW3 7760   0.211   2.908   3.472 -0.4111  0.3454  1.3588
 1939SOL    MW4 7761   0.224   2.825   3.495 -0.3571  0.1807  0.7467
 1940SOL     OW 7762   0.208   3.064   3.421  0.5394  0.0307 -0.2977
 1940SOL    HW2 7763   0.129   3.099   3.463 -0.1148 -2.0363  0.2776
 1940SOL    HW3 7764   0.188   3.065   3.328 -0.9248 -2.1686 -0.0478
 1940SOL    MW4 7765   0.195   3.069   3.414  0.2599 -0.5319 -0.1891
 1941SOL     OW 7766   4.480   3.182   3.529 -0.1548 -0.0159  0.2771
 1941SOL    HW2 7767   4.401   3.148   3.488 -0.1719 -1.0119  1.1083
 1941SOL    HW3 7768   4.491   3.270   3.493 -0.9193 -0.3667 -0.8147
 1941SOL    MW4 7769   4.471   3.189   3.519 -0.2575 -0.1936  0.2425
 1942SOL     OW 7770   4.486   3.426   3.402  0.3813  0.0929 -0.3809
 1942SOL    HW2 7771   4.417   3.479   3.442  0.4449 -0.1682  0.0835
 1942SOL    HW3 7772   4.484   3.450   3.309 -0.3315  0.0833 -0.3716
 1942SOL    MW4 7773   4.477   3.436   3.395  0.2956  0.0570 -0.3185
 1943SOL     OW 7774   0.204   3.590   3.475 -0.1041  0.2307 -0.4935
 1943SOL    HW2 7775   0.192   3.577   3.569  0.8169 -0.2408 -0.4387
 1943SOL    HW3 7776   0.137   3.535   3.434 -0.4710  0.3964 -0.1194
 1943SOL    MW4 7777   0.193   3.581   3.482 -0.0310  0.1905 -0.4368
 1944SOL     OW 7778   0.227   3.848   3.391  0.0486 -0.2520 -0.6939
 1944SOL    HW2 7779   0.154   3.887   3.438  0.5818 -0.0756 -0.0028
 1944SOL    HW3 7780   0.216   3.754   3.404  0.9152 -0.1423  0.8742
 1944SOL    MW4 7781   0.216   3.841   3.399  0.2333 -0.2141 -0.3958
 1945SOL     OW 7782   0.012   3.994   3.503 -0.2520 -0.1616 -0.6933
 1945SOL    HW2 7783   0.037   3.984   3.595 -0.1226 -0.6935 -0.7826
 1945SOL    HW3 7784   0.027   4.086   3.483  0.8597 -0.2992 -0.5148
 1945SOL    MW4 7785   0.017   4.005   3.512 -0.0883 -0.2503 -0.6814
 1946SOL     OW 7786   0.030   4.275   3.422  0.2654  0.5566 -0.4563
 1946SOL    HW2 7787  -0.053   4.318   3.445 -0.1683 -0.0093 -0.9439
 1946SOL    HW3 7788   0.097   4.328   3.465 -0.3925  0.6701  0.4432
 1946SOL    MW4 7789   0.028   4.288   3.431  0.1214  0.4964 -0.4020
 1947SOL     OW 7790   0.231   4.418   3.526 -0.2535 -0.1310 -0.0900
 1947SOL    HW2 7791   0.226   4.411   3.622 -2.0944 -1.6355 -0.2904
 1947SOL    HW3 7792   0.306   4.363   3.503  0.2137  0.2509  0.4632
 1947SOL    MW4 7793   0.241   4.410   3.536 -0.4347 -0.2794 -0.0434
 1948SOL     OW 7794   0.623   4.594   3.437 -0.5443  0.3873  0.5512
 1948SOL    HW2 7795   0.696   4.645   3.472 -0.0040 -0.1663  0.2345
 1948SOL    HW3 7796   0.622   4.615   3.343  1.9497 -2.8768 -0.3178
 1948SOL    MW4 7797   0.632   4.604   3.429 -0.1439 -0.1163  0.3948
 1949SOL     OW 7798   0.459   0.141   3.501 -0.0105 -0.1767  0.0927
 1949SOL    HW2 7799   0.468   0.160   3.594  1.5078  1.9612 -0.4562
 1949SOL    HW3 7800   0.513   0.063   3.486  0.0481 -0.2914  0.9126
 1949SOL    MW4 7801   0.467   0.133   3.511  0.1976  0.0903  0.1280
 1950SOL     OW 7802   0.449   0.393   3.380 -0.2506  0.3108 -0.4365
 1950SOL    HW2 7803   0.533   0.429   3.410 -0.5832  0.4110  0.3721
 1950SOL    HW3 7804   0.442   0.308   3.422 -1.4376  1.1098  1.0253
 1950SOL    MW4 7805   0.459   0.387   3.389 -0.4511  0.4295 -0.1371
 1951SOL     OW 7806   0.670   0.494   3.500  0.1393  0.2643  0.0795
 1951SOL    HW2 7807   0.692   0.504   3.592 -0.8221 -2.6206  0.6488
 1951SOL    HW3 7808   0.738   0.436   3.465 -0.9183 -0.7022 -0.4131
 1951SOL    MW4 7809   0.682   0.488   3.507 -0.1271 -0.2439  0.0894
 1952SOL     OW 7810   0.698   0.748   3.420  0.0328  0.1341 -0.1006
 1952SOL    HW2 7811   0.613   0.784   3.444 -0.1240  0.8490 -1.6635
 1952SOL    HW3 7812   0.692   0.654   3.441 -1.5192 -0.0202 -1.2042
 1952SOL    MW4 7813   0.686   0.740   3.426 -0.1926  0.2081 -0.4528
 1953SOL     OW 7814   0.464   0.884   3.514  0.3351  0.4821 -0.2254
 1953SOL    HW2 7815   0.472   0.885   3.610 -0.3928  1.5588 -0.1602
 1953SOL    HW3 7816   0.446   0.976   3.491 -1.3389 -0.0718 -1.2214
 1953SOL    MW4 7817   0.463   0.896   3.524  0.0182  0.5510 -0.3481
 1954SOL     OW 7818   0.435   1.140   3.425 -0.2922  0.1246 -0.6340
 1954SOL    HW2 7819   0.518   1.186   3.441  0.2018 -0.8074 -0.4813
 1954SOL    HW3 7820   0.436   1.119   3.332  0.8133 -2.0897 -0.1691
 1954SOL    MW4 7821   0.446   1.143   3.415 -0.0812 -0.2904 -0.5527
 1955SOL     OW 7822   0.682   1.267   3.485  0.0928  0.5889  0.1390
 1955SOL    HW2 7823   0.768   1.226   3.476 -0.3252  0.1171 -1.7475
 1955SOL    HW3 7824   0.697   1.359   3.462 -0.2083  0.1715 -1.8248
 1955SOL    MW4 7825   0.695   1.274   3.481 -0.0021  0.4716 -0.3693
 1956SOL     OW 7826   0.744   1.544   3.396  0.1924 -0.2921 -0.0004
 1956SOL    HW2 7827   0.807   1.603   3.439  0.0695  0.5547 -0.9429
 1956SOL    HW3 7828   0.659   1.581   3.419  0.1599  1.5257 -2.7583
 1956SOL    MW4 7829   0.741   1.557   3.405  0.1718  0.0595 -0.4885
 1957SOL     OW 7830   0.484   1.669   3.447  0.0561 -0.6743  0.3437
 1957SOL    HW2 7831   0.474   1.666   3.542  2.3482 -1.0609  0.5996
 1957SOL    HW3 7832   0.449   1.755   3.422  0.7017  0.0078  1.7103
 1957SOL    MW4 7833   0.478   1.680   3.456  0.4437 -0.6354  0.5577
 1958SOL     OW 7834   0.439   1.919   3.366  0.3779 -0.0866 -0.2709
 1958SOL    HW2 7835   0.368   1.968   3.407 -0.1028 -0.5992 -0.4972
 1958SOL    HW3 7836   0.413   1.908   3.275  1.2191  0.6133 -0.6030
 1958SOL    MW4 7837   0.427   1.924   3.359  0.4255 -0.0620 -0.3445
 1959SOL     OW 7838   0.688   1.998   3.469 -0.2261 -0.4644  0.2936
 1959SOL    HW2 7839   0.666   1.993   3.562 -1.6864 -2.2046 -0.1193
 1959SOL    HW3 7840   0.607   1.973   3.424  1.0076 -1.5054 -1.3996
 1959SOL    MW4 7841   0.674   1.994   3.476 -0.2559 -0.8315  0.0157
 1960SOL     OW 7842   0.671   2.288   3.375 -0.2350 -0.3935  0.3863
 1960SOL    HW2 7843   0.754   2.327   3.399 -0.6762 -0.0925  1.4412
 1960SOL    HW3 7844   0.679   2.196   3.399  0.1623 -0.5962 -0.4804
 1960SOL    MW4 7845   0.683   2.281   3.381 -0.2407 -0.3803  0.4108
 1961SOL     OW 7846   0.476   2.457   3.475  0.0737 -0.4054 -0.1643
 1961SOL    HW2 7847   0.547   2.401   3.444 -0.1844 -1.3670  0.9430
 1961SOL    HW3 7848   0.396   2.410   3.450 -0.1484 -0.4267  0.5871
 1961SOL    MW4 7849   0.475   2.443   3.468  0.0103 -0.5352  0.0811
 1962SOL     OW 7850   0.442   2.737   3.399  0.2495 -0.2890  0.3746
 1962SOL    HW2 7851   0.473   2.652   3.432  0.5202 -0.5684 -0.5717
 1962SOL    HW3 7852   0.433   2.724   3.304 -0.7199  0.4330  0.3664
 1962SOL    MW4 7853   0.445   2.724   3.391  0.1574 -0.2308  0.2484
 1963SOL     OW 7854   0.683   2.846   3.493 -0.2305  0.0299  0.0839
 1963SOL    HW2 7855   0.740   2.783   3.449  0.1416  0.5265 -0.1543
 1963SOL    HW3 7856   0.595   2.813   3.480 -0.1928  0.5743 -1.7044
 1963SOL    MW4 7857   0.679   2.834   3.485 -0.1764  0.1671 -0.1836
 1964SOL     OW 7858   0.686   3.130   3.424  0.1636  0.5862 -0.3634
 1964SOL    HW2 7859   0.595   3.149   3.444  0.3990  0.1008  1.1961
 1964SOL    HW3 7860   0.695   3.035   3.439  1.2415  0.8615  0.7726
 1964SOL    MW4 7861   0.676   3.120   3.428  0.3369  0.5586 -0.0079
 1965SOL     OW 7862   0.437   3.213   3.473  0.4063  0.0747 -0.0772
 1965SOL    HW2 7863   0.440   3.219   3.568 -0.5260  1.0855 -0.0975
 1965SOL    HW3 7864   0.363   3.155   3.454  0.0934  0.5119 -0.1997
 1965SOL    MW4 7865   0.428   3.206   3.483  0.2421  0.2656 -0.0958
 1966SOL     OW 7866   0.430   3.460   3.366 -0.1418  0.1051 -0.9936
 1966SOL    HW2 7867   0.420   3.375   3.408  0.5907 -0.6320 -2.2752
 1966SOL    HW3 7868   0.359   3.513   3.401  0.3493 -0.5359  1.0277
 1966SOL    MW4 7869   0.419   3.456   3.376  0.0196 -0.0768 -0.8960
 1967SOL     OW 7870   0.658   3.591   3.489 -0.1359 -0.0134  0.4518
 1967SOL    HW2 7871   0.743   3.560   3.456 -0.4353  1.5132 -1.8449
 1967SOL    HW3 7872   0.594   3.536   3.444 -0.4287 -0.0136  0.8714
 1967SOL    MW4 7873   0.661   3.579   3.478 -0.2140  0.1881  0.2041
 1968SOL     OW 7874   0.688   3.838   3.361  0.8200  0.0070 -0.0698
 1968SOL    HW2 7875   0.604   3.878   3.385  0.4540 -1.0421  0.4077
 1968SOL    HW3 7876   0.687   3.753   3.404  2.0643 -0.0791 -0.2068
 1968SOL    MW4 7877   0.677   3.832   3.370  0.9359 -0.1431 -0.0248
 1969SOL     OW 7878   0.430   3.988   3.509  0.1503  0.1291 -0.2348
 1969SOL    HW2 7879   0.406   4.078   3.488  0.2596  0.6703  1.8244
 1969SOL    HW3 7880   0.366   3.934   3.462 -0.0187  1.2794 -1.3371
 1969SOL    MW4 7881   0.419   3.992   3.500  0.1425  0.3524 -0.1085
 1970SOL     OW 7882   0.425   4.254   3.429 -0.2104  0.1026 -0.0749
 1970SOL    HW2 7883   0.507   4.295   3.456  0.9381 -1.4283 -1.1214
 1970SOL    HW3 7884   0.425   4.264   3.333 -1.4336  0.4358 -0.0380
 1970SOL    MW4 7885   0.436   4.261   3.420 -0.2203 -0.0558 -0.2081
 1971SOL     OW 7886   0.661   4.343   3.555 -0.4297 -0.3281 -0.0101
 1971SOL    HW2 7887   0.738   4.294   3.524 -0.1080 -0.7506  1.4332
 1971SOL    HW3 7888   0.667   4.427   3.510  1.7261  0.2167  1.1978
 1971SOL    MW4 7889   0.672   4.348   3.545 -0.1029 -0.3119  0.3400
 1972SOL     OW 7890   1.102   4.667   3.410 -0.0901  0.5437 -0.2822
 1972SOL    HW2 7891   1.191   4.700   3.423  0.0897  0.4681 -1.2858
 1972SOL    HW3 7892   1.089   4.669   3.315 -0.9934  0.1179 -0.1746
 1972SOL    MW4 7893   1.112   4.671   3.399 -0.1855  0.4778 -0.4001
 1973SOL     OW 7894   0.849   0.071   3.505  0.1109  0.5084 -0.4133
 1973SOL    HW2 7895   0.857   0.069   3.601 -0.2676 -2.4561 -0.4019
 1973SOL    HW3 7896   0.930   0.031   3.474 -0.0513  0.8708 -1.3042
 1973SOL    MW4 7897   0.861   0.065   3.514  0.0396  0.1651 -0.5295
 1974SOL     OW 7898   0.899   0.328   3.422 -0.1076 -0.2218  0.3590
 1974SOL    HW2 7899   0.988   0.351   3.448  0.4803 -1.9106 -0.0852
 1974SOL    HW3 7900   0.884   0.241   3.461 -0.3438 -1.4218 -2.2877
 1974SOL    MW4 7901   0.909   0.319   3.430 -0.0612 -0.6029 -0.0489
 1975SOL     OW 7902   1.149   0.478   3.502 -0.8923 -0.9900  0.0125
 1975SOL    HW2 7903   1.155   0.492   3.597 -0.7299  0.2439 -0.1656
 1975SOL    HW3 7904   1.133   0.566   3.467  0.1109 -1.2853 -1.1967
 1975SOL    MW4 7905   1.147   0.491   3.510 -0.7385 -0.8661 -0.1707
 1976SOL     OW 7906   1.119   0.731   3.408 -0.1041  0.8398  0.3946
 1976SOL    HW2 7907   1.203   0.770   3.434  0.2745  0.5756 -0.4198
 1976SOL    HW3 7908   1.054   0.777   3.461  0.4221  1.9978  0.0549
 1976SOL    MW4 7909   1.122   0.742   3.418  0.0153  0.9577  0.2425
 1977SOL     OW 7910   0.918   0.883   3.525 -0.1423 -0.5236  0.4770
 1977SOL    HW2 7911   0.918   0.971   3.487  1.7067 -0.3446  0.8432
 1977SOL    HW3 7912   0.844   0.839   3.483 -0.7054  0.9920 -0.1809
 1977SOL    MW4 7913   0.908   0.889   3.514  0.0273 -0.3000  0.4385
 1978SOL     OW 7914   0.944   1.154   3.442  0.1136 -0.0092 -0.1594
 1978SOL    HW2 7915   1.016   1.210   3.470  0.3435  0.4246 -1.5511
 1978SOL    HW3 7916   0.949   1.156   3.346  0.1776 -2.4624 -0.2406
 1978SOL    MW4 7917   0.954   1.162   3.433  0.1524 -0.2757 -0.3538
 1979SOL     OW 7918   1.166   1.304   3.506 -0.1435  0.0842 -0.1637
 1979SOL    HW2 7919   1.194   1.322   3.596  1.5181  0.3186 -0.7066
 1979SOL    HW3 7920   1.158   1.391   3.466 -2.5026  0.0669  0.2057
 1979SOL    MW4 7921   1.169   1.318   3.513 -0.2354  0.1129 -0.1867
 1980SOL     OW 7922   1.170   1.555   3.404 -0.2269 -0.2409 -0.0216
 1980SOL    HW2 7923   1.249   1.607   3.421  0.6193 -1.2885 -0.6853
 1980SOL    HW3 7924   1.144   1.579   3.315  0.5944 -1.4860 -0.6094
 1980SOL    MW4 7925   1.177   1.565   3.394 -0.0068 -0.5434 -0.1867
 1981SOL     OW 7926   0.947   1.691   3.521  0.0012  0.0243  0.1676
 1981SOL    HW2 7927   0.951   1.766   3.462 -0.1439 -0.8649 -0.9831
 1981SOL    HW3 7928   1.024   1.639   3.500 -1.6584 -1.8829 -1.4134
 1981SOL    MW4 7929   0.958   1.694   3.511 -0.2369 -0.3446 -0.1931
 1982SOL     OW 7930   0.905   1.909   3.351 -0.2436 -0.0326  0.0711
 1982SOL    HW2 7931   0.979   1.949   3.396  0.0289 -1.0215  0.5220
 1982SOL    HW3 7932   0.830   1.929   3.407 -0.4484  1.5393 -0.7238
 1982SOL    MW4 7933   0.905   1.917   3.364 -0.2347  0.0441  0.0255
 1983SOL     OW 7934   1.130   2.038   3.470  0.6401 -0.2843  0.5080
 1983SOL    HW2 7935   1.216   2.000   3.453  1.4444  0.7457  2.1058
 1983SOL    HW3 7936   1.130   2.122   3.424  0.8464  0.1342  1.2633
 1983SOL    MW4 7937   1.141   2.044   3.462  0.7734 -0.0932  0.8185
 1984SOL     OW 7938   1.145   2.315   3.404 -0.5332  0.2440 -0.4358
 1984SOL    HW2 7939   1.207   2.382   3.432 -1.8495  1.8052 -1.2079
 1984SOL    HW3 7940   1.145   2.319   3.309 -0.8863 -0.6226 -0.4862
 1984SOL    MW4 7941   1.153   2.324   3.396 -0.7535  0.3357 -0.5445
 1985SOL     OW 7942   0.892   2.396   3.494 -0.6300 -0.0811  0.6610
 1985SOL    HW2 7943   0.890   2.409   3.589 -1.9797 -0.3348  0.6699
 1985SOL    HW3 7944   0.970   2.342   3.480  0.5230  1.3044  1.4360
 1985SOL    MW4 7945   0.902   2.391   3.505 -0.6559  0.0679  0.7644
 1986SOL     OW 7946   0.874   2.675   3.409 -0.1696  0.0088  0.2106
 1986SOL    HW2 7947   0.945   2.728   3.445 -0.2338  0.0890  0.2206
 1986SOL    HW3 7948   0.900   2.585   3.426  0.0723  0.0279 -0.0515
 1986SOL    MW4 7949   0.887   2.670   3.416 -0.1461  0.0219  0.1774
 1987SOL     OW 7950   1.104   2.814   3.488  0.4497  0.1277 -0.2441
 1987SOL    HW2 7951   1.125   2.831   3.580 -0.2135 -0.8004  0.0803
 1987SOL    HW3 7952   1.185   2.782   3.450  0.2310 -1.2951  0.4713
 1987SOL    MW4 7953   1.117   2.812   3.495  0.3333 -0.1824 -0.1068
 1988SOL     OW 7954   1.108   3.097   3.402 -0.0150 -0.5879 -0.0796
 1988SOL    HW2 7955   1.088   3.004   3.418  1.6269 -1.0576 -0.7109
 1988SOL    HW3 7956   1.138   3.100   3.311 -0.4056  0.6253 -0.1730
 1988SOL    MW4 7957   1.109   3.085   3.392  0.1501 -0.4900 -0.1752
 1989SOL     OW 7958   0.910   3.262   3.518 -0.4559  0.2762  0.6177
 1989SOL    HW2 7959   0.983   3.211   3.484 -0.0692  0.9479  0.4323
 1989SOL    HW3 7960   0.833   3.226   3.474 -0.5025 -1.7694  2.3060
 1989SOL    MW4 7961   0.909   3.251   3.507 -0.4110  0.0949  0.8161
 1990SOL     OW 7962   0.895   3.490   3.368  0.0092 -0.1313 -0.2451
 1990SOL    HW2 7963   0.912   3.401   3.399  3.2523  1.2351  2.1558
 1990SOL    HW3 7964   0.888   3.481   3.273  0.5961 -2.8907 -0.0845
 1990SOL    MW4 7965   0.896   3.477   3.359  0.5145 -0.3152  0.0930
 1991SOL     OW 7966   1.126   3.611   3.466 -0.2918 -0.0161  0.1321
 1991SOL    HW2 7967   1.124   3.601   3.561 -1.1019  1.0746  0.2356
 1991SOL    HW3 7968   1.044   3.572   3.435 -0.7833  1.0583  0.0376
 1991SOL    MW4 7969   1.115   3.605   3.474 -0.4636  0.2694  0.1330
 1992SOL     OW 7970   1.122   3.871   3.430  0.1976  0.3556  0.1945
 1992SOL    HW2 7971   1.202   3.922   3.441 -0.7745  2.1263 -0.8496
 1992SOL    HW3 7972   1.148   3.781   3.451  2.4069  0.9384  0.0284
 1992SOL    MW4 7973   1.136   3.866   3.434  0.3607  0.6661  0.0348
 1993SOL     OW 7974   0.874   3.984   3.513  0.4713 -0.1078  0.5074
 1993SOL    HW2 7975   0.949   3.954   3.461  0.6035 -0.1397  0.7155
 1993SOL    HW3 7976   0.798   3.940   3.475  0.2172  1.7987 -1.2876
 1993SOL    MW4 7977   0.874   3.974   3.501  0.4552  0.1397  0.2980
 1994SOL     OW 7978   0.890   4.258   3.429 -0.2140 -0.1279 -0.3107
 1994SOL    HW2 7979   0.920   4.169   3.445  0.4651  0.1987  0.2759
 1994SOL    HW3 7980   0.913   4.276   3.338  1.0111 -0.0240  0.0152
 1994SOL    MW4 7981   0.897   4.249   3.419  0.0372 -0.0706 -0.1903
 1995SOL     OW 7982   1.109   4.419   3.536 -0.2555  0.3118 -0.2793
 1995SOL    HW2 7983   1.033   4.363   3.523  0.0854 -0.1597 -0.2221
 1995SOL    HW3 7984   1.089   4.497   3.484 -0.6972  0.1160 -0.4085
 1995SOL    MW4 7985   1.096   4.422   3.527 -0.2688  0.2232 -0.2887
 1996SOL     OW 7986   1.598   4.636   3.416  0.0226  0.0232  0.5887
 1996SOL    HW2 7987   1.587   4.551   3.458 -2.2786  0.1639  0.3503
 1996SOL    HW3 7988   1.516   4.682   3.435  0.1220  1.1492 -1.6016
 1996SOL    MW4 7989   1.586   4.631   3.424 -0.2679  0.1898  0.2682
 1997SOL     OW 7990   1.345   0.099   3.468  0.4129  0.3361  0.1871
 1997SOL    HW2 7991   1.350   0.109   3.563  1.1139 -0.8884  0.2973
 1997SOL    HW3 7992   1.359   0.187   3.434 -0.8847  0.9581  1.2467
 1997SOL    MW4 7993   1.348   0.112   3.476  0.3341  0.2566  0.3414
 1998SOL     OW 7994   1.357   0.374   3.386  0.1288  0.6653  0.2209
 1998SOL    HW2 7995   1.424   0.415   3.442  1.8241 -0.0491 -1.2538
 1998SOL    HW3 7996   1.275   0.409   3.420  1.2337  1.7233  1.9559
 1998SOL    MW4 7997   1.355   0.384   3.398  0.4983  0.7106  0.2553
 1999SOL     OW 7998   1.563   0.489   3.514 -0.3040  0.3142 -0.0074
 1999SOL    HW2 7999   1.573   0.508   3.608 -0.9646 -1.2566  0.3932
 1999SOL    HW3 8000   1.649   0.457   3.487 -0.3900 -0.1840  0.2987
 1999SOL    MW4 8001   1.576   0.488   3.523 -0.4025  0.0412  0.0856
 2000SOL     OW 8002   1.579   0.734   3.388  0.0969  0.3863  0.2643
 2000SOL    HW2 8003   1.506   0.785   3.424  0.0013  1.1431 -0.9642
 2000SOL    HW3 8004   1.571   0.648   3.428 -1.6288  0.3838 -0.0507
 2000SOL    MW4 8005   1.568   0.730   3.398 -0.1434  0.4858  0.0606
 2001SOL     OW 8006   1.367   0.862   3.491 -0.2167  0.0275 -0.5774
 2001SOL    HW2 8007   1.377   0.870   3.586  0.3258 -0.9633 -0.5438
 2001SOL    HW3 8008   1.371   0.952   3.459  0.3088  0.3151  0.2720
 2001SOL    MW4 8009   1.369   0.875   3.499 -0.0757 -0.0653 -0.4611
 2002SOL     OW 8010   1.365   1.121   3.402 -0.6639 -0.0038  0.0958
 2002SOL    HW2 8011   1.440   1.171   3.436 -0.0478 -1.2037  0.5121
 2002SOL    HW3 8012   1.289   1.164   3.440 -0.1568  0.8094  0.2193
 2002SOL    MW4 8013   1.365   1.134   3.411 -0.5156 -0.0548  0.1676
 2003SOL     OW 8014   1.587   1.272   3.493  0.1113  0.4321 -0.1742
 2003SOL    HW2 8015   1.588   1.263   3.588 -0.5405 -0.3508 -0.2340
 2003SOL    HW3 8016   1.667   1.227   3.464 -0.1833 -0.1752 -0.0572
 2003SOL    MW4 8017   1.598   1.265   3.502 -0.0135  0.2486 -0.1667
 2004SOL     OW 8018   1.618   1.529   3.385  0.6915 -0.0713 -0.1020
 2004SOL    HW2 8019   1.597   1.437   3.402  1.4665 -0.5981 -1.8809
 2004SOL    HW3 8020   1.600   1.541   3.292  1.2297  1.4027 -0.0242
 2004SOL    MW4 8021   1.613   1.518   3.375  0.8647  0.0536 -0.3264
 2005SOL     OW 8022   1.406   1.690   3.449  0.0711 -0.1879  0.4395
 2005SOL    HW2 8023   1.396   1.681   3.544  0.1036  1.5565  0.6228
 2005SOL    HW3 8024   1.477   1.630   3.426  0.0309 -0.6567  1.5100
 2005SOL    MW4 8025   1.414   1.681   3.458  0.0700 -0.0197  0.6049
 2006SOL     OW 8026   1.363   1.939   3.365 -0.0427  0.1100  0.1313
 2006SOL    HW2 8027   1.441   1.987   3.395  0.0364 -0.0630  0.2048
 2006SOL    HW3 8028   1.381   1.848   3.389 -0.2638  0.0685  0.1379
 2006SOL    MW4 8029   1.376   1.933   3.372 -0.0614  0.0818  0.1421
 2007SOL     OW 8030   1.586   2.092   3.469  0.3889  0.0420 -0.3729
 2007SOL    HW2 8031   1.662   2.057   3.422 -0.1651 -1.7078 -0.0100
 2007SOL    HW3 8032   1.572   2.178   3.431  1.6087 -0.2582 -1.5390
 2007SOL    MW4 8033   1.594   2.098   3.457  0.4768 -0.2284 -0.4787
 2008SOL     OW 8034   1.585   2.348   3.360 -0.1421  0.0678  0.1862
 2008SOL    HW2 8035   1.513   2.389   3.409 -0.9675 -0.0942 -0.8829
 2008SOL    HW3 8036   1.565   2.366   3.269  0.3218 -1.3865 -0.2148
 2008SOL    MW4 8037   1.573   2.356   3.355 -0.1898 -0.1454 -0.0081
 2009SOL     OW 8038   1.375   2.482   3.491 -0.0813  0.1660  0.1012
 2009SOL    HW2 8039   1.369   2.473   3.586  0.3788 -0.2191  0.0986
 2009SOL    HW3 8040   1.387   2.576   3.476  1.5509  0.0457  0.5281
 2009SOL    MW4 8041   1.376   2.493   3.502  0.1949  0.0994  0.1574
 2010SOL     OW 8042   1.338   2.748   3.376  0.1584 -0.1379  0.2391
 2010SOL    HW2 8043   1.424   2.781   3.400  0.3149 -0.3507 -0.0295
 2010SOL    HW3 8044   1.339   2.742   3.281 -0.0379 -0.4518  0.2532
 2010SOL    MW4 8045   1.349   2.752   3.367  0.1532 -0.2074  0.2055
 2011SOL     OW 8046   1.589   2.819   3.473  0.8613  0.1930 -0.0194
 2011SOL    HW2 8047   1.654   2.760   3.437  1.6673  1.5617 -0.8456
 2011SOL    HW3 8048   1.614   2.906   3.441  0.0206  1.0694  1.6121
 2011SOL    MW4 8049   1.601   2.823   3.464  0.8568  0.4890  0.0870
 2012SOL     OW 8050   1.622   3.082   3.379 -0.5585  0.2416 -0.0669
 2012SOL    HW2 8051   1.678   3.158   3.393 -1.1791  0.6258  0.3228
 2012SOL    HW3 8052   1.533   3.114   3.394 -1.0917  0.2059 -2.8894
 2012SOL    MW4 8053   1.617   3.096   3.383 -0.7107  0.2875 -0.3877
 2013SOL     OW 8054   1.361   3.201   3.483  0.3795  0.6907  0.2302
 2013SOL    HW2 8055   1.362   3.205   3.579  0.9794  1.3207  0.2049
 2013SOL    HW3 8056   1.276   3.163   3.462  0.9177 -1.0217  1.0497
 2013SOL    MW4 8057   1.350   3.197   3.493  0.5295  0.5479  0.3350
 2014SOL     OW 8058   1.380   3.464   3.382 -0.5063 -0.0212 -0.1120
 2014SOL    HW2 8059   1.381   3.373   3.410 -0.0563 -0.0708 -0.2866
 2014SOL    HW3 8060   1.293   3.496   3.407 -1.0867 -0.8098 -1.0535
 2014SOL    MW4 8061   1.368   3.456   3.389 -0.5237 -0.1316 -0.2594
 2015SOL     OW 8062   1.576   3.627   3.488  0.0048 -0.2611 -0.2186
 2015SOL    HW2 8063   1.573   3.615   3.583 -0.2854  0.7502 -0.0960
 2015SOL    HW3 8064   1.507   3.570   3.455  0.4104 -0.9666  0.1356
 2015SOL    MW4 8065   1.566   3.618   3.496  0.0200 -0.2208 -0.1559
 2016SOL     OW 8066   1.551   3.912   3.445  0.2419 -0.1545  0.2228
 2016SOL    HW2 8067   1.560   3.818   3.465 -0.4490 -0.3737 -0.4817
 2016SOL    HW3 8068   1.561   3.918   3.350 -0.8585  0.3361  0.1304
 2016SOL    MW4 8069   1.553   3.900   3.435  0.0057 -0.1190  0.1175
 2017SOL     OW 8070   1.329   4.058   3.506 -0.3449 -0.5558 -0.1373
 2017SOL    HW2 8071   1.326   4.141   3.459  1.9505  0.3108  1.1920
 2017SOL    HW3 8072   1.405   4.013   3.469  1.3189  0.0142  2.4568
 2017SOL    MW4 8073   1.338   4.063   3.495  0.1776 -0.3667  0.3800
 2018SOL     OW 8074   1.330   4.298   3.375  0.4938  0.6935 -0.0551
 2018SOL    HW2 8075   1.245   4.331   3.404 -0.0457 -1.2953  0.6639
 2018SOL    HW3 8076   1.328   4.308   3.280  0.3095  2.6098  0.1236
 2018SOL    MW4 8077   1.319   4.304   3.366  0.3984  0.6838  0.0634
 2019SOL     OW 8078   1.558   4.385   3.526  0.2859 -0.7395  0.0258
 2019SOL    HW2 8079   1.632   4.331   3.498  0.1244 -1.4296  0.8825
 2019SOL    HW3 8080   1.482   4.346   3.484  0.4381  0.1868 -1.1425
 2019SOL    MW4 8081   1.558   4.373   3.517  0.2847 -0.7086 -0.0153
 2020SOL     OW 8082   1.997   0.014   3.404  0.3578  0.0456 -0.3305
 2020SOL    HW2 8083   2.068   0.074   3.428  0.7745  0.2565 -2.0304
 2020SOL    HW3 8084   1.919   0.054   3.443  0.6845  1.5053 -1.1138
 2020SOL    MW4 8085   1.996   0.027   3.413  0.4557  0.2660 -0.6580
 2021SOL     OW 8086   1.787   0.135   3.522  0.4051 -0.5637 -0.4636
 2021SOL    HW2 8087   1.791   0.119   3.617 -0.1597  0.8376 -0.1971
 2021SOL    HW3 8088   1.726   0.069   3.489 -1.9682  1.0284  0.6311
 2021SOL    MW4 8089   1.780   0.124   3.531  0.0174 -0.1687 -0.2840
 2022SOL     OW 8090   1.815   0.394   3.439 -0.1691 -0.2364  0.2243
 2022SOL    HW2 8091   1.801   0.305   3.472 -2.4663 -0.5186 -1.3875
 2022SOL    HW3 8092   1.822   0.385   3.345 -1.6026  1.3760 -0.0805
 2022SOL    MW4 8093   1.814   0.381   3.431 -0.6613 -0.0609 -0.0286
 2023SOL     OW 8094   2.011   0.573   3.522 -0.0591  0.2898  0.2798
 2023SOL    HW2 8095   2.004   0.646   3.460 -0.2765  0.0368  0.0002
 2023SOL    HW3 8096   1.937   0.517   3.500  0.0733  0.0161  0.5332
 2023SOL    MW4 8097   2.000   0.576   3.511 -0.0701  0.2204  0.2763
 2024SOL     OW 8098   2.022   0.812   3.357 -0.3017 -0.2530  0.3159
 2024SOL    HW2 8099   2.107   0.849   3.382 -0.0581 -0.2825 -0.4365
 2024SOL    HW3 8100   2.026   0.809   3.261 -0.7314 -1.2735  0.3333
 2024SOL    MW4 8101   2.034   0.817   3.347 -0.3262 -0.3915  0.2189
 2025SOL     OW 8102   1.782   0.891   3.498  0.1905  0.6432 -0.3130
 2025SOL    HW2 8103   1.865   0.860   3.462  0.3342  2.5145 -1.6716
 2025SOL    HW3 8104   1.716   0.838   3.455  0.7345 -1.9643  1.9672
 2025SOL    MW4 8105   1.784   0.880   3.488  0.2813  0.5462 -0.1917
 2026SOL     OW 8106   1.809   1.159   3.389  0.1497  0.4629 -0.6007
 2026SOL    HW2 8107   1.894   1.198   3.409  0.0438 -0.1106  1.0124
 2026SOL    HW3 8108   1.804   1.081   3.444 -1.7700  0.9632 -0.0140
 2026SOL    MW4 8109   1.819   1.154   3.399 -0.1175  0.4532 -0.3104
 2027SOL     OW 8110   2.065   1.254   3.485 -0.2944  0.2627  0.0977
 2027SOL    HW2 8111   2.068   1.253   3.580  1.3119 -1.4605  0.0667
 2027SOL    HW3 8112   2.062   1.347   3.461  0.0228  0.7178  1.8016
 2027SOL    MW4 8113   2.065   1.266   3.494 -0.0403  0.0952  0.3183
 2028SOL     OW 8114   2.050   1.507   3.367 -0.4439  0.1302 -0.1326
 2028SOL    HW2 8115   2.127   1.556   3.396 -0.3527 -0.4054  0.5662
 2028SOL    HW3 8116   1.975   1.556   3.401 -0.3385 -0.4639  0.9893
 2028SOL    MW4 8117   2.050   1.520   3.375 -0.4179 -0.0190  0.1075
 2029SOL     OW 8118   1.841   1.666   3.462 -0.0871 -0.1547  0.2283
 2029SOL    HW2 8119   1.823   1.746   3.413 -0.1389 -0.7018 -0.6594
 2029SOL    HW3 8120   1.764   1.611   3.448 -0.2475 -0.1916  1.1985
 2029SOL    MW4 8121   1.828   1.669   3.454 -0.1152 -0.2316  0.2391
 2030SOL     OW 8122   1.815   1.945   3.372  0.4928  0.5549  0.2137
 2030SOL    HW2 8123   1.885   1.970   3.432  0.2004  2.1023 -0.0818
 2030SOL    HW3 8124   1.852   1.957   3.285  0.2752  0.1390  0.0613
 2030SOL    MW4 8125   1.829   1.950   3.369  0.4256  0.7042  0.1547
 2031SOL     OW 8126   2.035   2.083   3.478  0.2460  0.0034 -0.4459
 2031SOL    HW2 8127   2.121   2.056   3.445  0.6131  1.1405 -0.4338
 2031SOL    HW3 8128   2.028   2.176   3.453 -1.1234 -0.1765 -0.7574
 2031SOL    MW4 8129   2.046   2.092   3.470  0.1135  0.1295 -0.4852
 2032SOL     OW 8130   2.036   2.363   3.381 -0.0139  0.2419  0.3227
 2032SOL    HW2 8131   2.108   2.415   3.417 -0.0647 -0.1325  0.9674
 2032SOL    HW3 8132   2.048   2.369   3.286  0.7126  0.4020  0.4181
 2032SOL    MW4 8133   2.047   2.371   3.373  0.0756  0.2136  0.4203
 2033SOL     OW 8134   1.812   2.467   3.493 -0.3628 -0.5324  0.3410
 2033SOL    HW2 8135   1.898   2.447   3.457 -0.6959  1.0333 -1.4241
 2033SOL    HW3 8136   1.754   2.401   3.456  0.0246 -1.4495  1.3495
 2033SOL    MW4 8137   1.816   2.456   3.483 -0.3555 -0.4468  0.2413
 2034SOL     OW 8138   1.808   2.710   3.352 -0.3434  0.0654 -0.3170
 2034SOL    HW2 8139   1.889   2.760   3.363 -0.0211 -0.5572  0.1698
 2034SOL    HW3 8140   1.829   2.623   3.385 -1.0200 -0.2853 -0.7932
 2034SOL    MW4 8141   1.822   2.705   3.358 -0.3902 -0.0632 -0.3154
 2035SOL     OW 8142   2.022   2.852   3.433 -0.2158  0.9715  0.1050
 2035SOL    HW2 8143   2.028   2.843   3.528  1.1210  0.8126  0.0187
 2035SOL    HW3 8144   2.002   2.944   3.418 -0.1399  1.0553  0.5324
 2035SOL    MW4 8145   2.021   2.863   3.443 -0.0293  0.9615  0.1502
 2036SOL     OW 8146   1.995   3.120   3.385  0.5202  0.1595 -0.3736
 2036SOL    HW2 8147   2.077   3.158   3.417  1.2536 -0.5249 -1.4492
 2036SOL    HW3 8148   1.930   3.189   3.399  1.4770  1.0946 -0.5178
 2036SOL    MW4 8149   1.997   3.134   3.391  0.7433  0.1922 -0.5348
 2037SOL     OW 8150   1.789   3.295   3.460  0.4306 -0.1638 -0.5061
 2037SOL    HW2 8151   1.757   3.304   3.550  1.0674  0.9238 -0.3829
 2037SOL    HW3 8152   1.793   3.385   3.427 -1.6851 -0.6815 -2.2947
 2037SOL    MW4 8153   1.785   3.308   3.468  0.2354 -0.0885 -0.7260
 2038SOL     OW 8154   1.812   3.555   3.356  0.1947  0.4146 -0.5932
 2038SOL    HW2 8155   1.727   3.577   3.396  0.5374 -0.7029  0.7868
 2038SOL    HW3 8156   1.792   3.547   3.262 -1.0650  0.9090 -0.3911
 2038SOL    MW4 8157   1.798   3.557   3.349  0.0737  0.3326 -0.3846
 2039SOL     OW 8158   2.020   3.647   3.506 -0.1177  0.0561 -0.1752
 2039SOL    HW2 8159   2.093   3.611   3.456  0.2813  0.8990 -0.2147
 2039SOL    HW3 8160   1.942   3.611   3.464  0.2624 -0.4587 -0.4452
 2039SOL    MW4 8161   2.020   3.638   3.494 -0.0150  0.0994 -0.2160
 2040SOL     OW 8162   2.051   3.908   3.399  0.0650 -0.5148  0.0942
 2040SOL    HW2 8163   1.979   3.959   3.435  0.3105 -0.4681  0.5191
 2040SOL    HW3 8164   2.045   3.823   3.443  1.0805 -0.0581  1.1108
 2040SOL    MW4 8165   2.041   3.903   3.409  0.2313 -0.4485  0.2842
 2041SOL     OW 8166   1.803   4.006   3.500 -0.0280 -0.7137 -0.7131
 2041SOL    HW2 8167   1.808   3.993   3.595 -0.3749  1.7579 -0.3151
 2041SOL    HW3 8168   1.724   3.959   3.474 -1.6181  1.0541  0.7385
 2041SOL    MW4 8169   1.793   3.998   3.509 -0.2835 -0.1547 -0.4692
 2042SOL     OW 8170   1.808   4.306   3.407  0.0711  0.2211  0.3090
 2042SOL    HW2 8171   1.807   4.212   3.423  0.4746  0.0895 -0.4383
 2042SOL    HW3 8172   1.780   4.316   3.316 -1.5948  0.9329  0.8766
 2042SOL    MW4 8173   1.804   4.295   3.398 -0.0956  0.2980  0.2851
 2043SOL     OW 8174   2.003   4.449   3.535 -0.2549  0.1520  0.0228
 2043SOL    HW2 8175   1.929   4.402   3.498  0.4281  0.2456 -1.4816
 2043SOL    HW3 8176   1.999   4.536   3.495 -1.0310  1.1159  2.1502
 2043SOL    MW4 8177   1.993   4.455   3.525 -0.2674  0.2909  0.1051
 2044SOL     OW 8178   2.417   0.007   3.426  0.2407 -0.4355  0.6531
 2044SOL    HW2 8179   2.417  -0.071   3.481 -1.7579 -1.7725 -1.1768
 2044SOL    HW3 8180   2.429  -0.025   3.337  0.8346  1.4817 -0.0013
 2044SOL    MW4 8181   2.419  -0.007   3.421  0.0553 -0.3590  0.3252
 2045SOL     OW 8182   2.199   0.175   3.502 -0.2875  0.0898  0.0801
 2045SOL    HW2 8183   2.200   0.254   3.447  0.3426 -0.6858 -1.0331
 2045SOL    HW3 8184   2.276   0.125   3.474 -0.1320 -0.4690  1.4607
 2045SOL    MW4 8185   2.209   0.179   3.491 -0.1838 -0.0862  0.1154
 2046SOL     OW 8186   2.167   0.414   3.352 -0.0833  0.3993 -0.0213
 2046SOL    HW2 8187   2.257   0.426   3.384 -0.6764 -0.8689  2.2740
 2046SOL    HW3 8188   2.114   0.468   3.410 -0.6634  2.4475 -2.4110
 2046SOL    MW4 8189   2.172   0.422   3.364 -0.2379  0.5022 -0.0336
 2047SOL     OW 8190   2.414   0.474   3.466  0.3054 -0.9269 -0.5359
 2047SOL    HW2 8191   2.491   0.439   3.421  2.3994  1.6472  0.8851
 2047SOL    HW3 8192   2.411   0.566   3.440 -0.2144 -0.1364  2.1411
 2047SOL    MW4 8193   2.424   0.482   3.457  0.5133 -0.4830  0.0052
 2048SOL     OW 8194   2.457   0.737   3.393  0.2066  0.3163 -0.1875
 2048SOL    HW2 8195   2.534   0.788   3.422  1.4252 -1.6392  0.0822
 2048SOL    HW3 8196   2.466   0.733   3.298  1.2283 -1.1327 -0.0364
 2048SOL    MW4 8197   2.469   0.743   3.384  0.5021 -0.1328 -0.1316
 2049SOL     OW 8198   2.245   0.904   3.483 -0.0703 -0.0656 -0.0248
 2049SOL    HW2 8199   2.271   0.991   3.454  0.5745 -0.2567 -0.0338
 2049SOL    HW3 8200   2.317   0.847   3.456 -0.6308 -0.6527 -0.2931
 2049SOL    MW4 8201   2.258   0.908   3.476 -0.0589 -0.1683 -0.0615
 2050SOL     OW 8202   2.293   1.151   3.370 -0.3682 -0.5314  0.8768
 2050SOL    HW2 8203   2.357   1.205   3.416 -0.4645 -0.3472  0.7959
 2050SOL    HW3 8204   2.208   1.187   3.397 -0.4493 -1.0360  1.3042
 2050SOL    MW4 8205   2.290   1.163   3.380 -0.3917 -0.5738  0.9224
 2051SOL     OW 8206   2.526   1.278   3.451 -0.1742  0.2220 -0.2091
 2051SOL    HW2 8207   2.529   1.268   3.546 -0.5387 -0.8270 -0.3069
 2051SOL    HW3 8208   2.599   1.226   3.418 -0.0936  0.5201 -0.5115
 2051SOL    MW4 8209   2.536   1.270   3.459 -0.2115  0.1229 -0.2623
 2052SOL     OW 8210   2.518   1.547   3.372  0.1697  0.5642  0.5783
 2052SOL    HW2 8211   2.535   1.455   3.391 -0.0113  0.4905  0.3910
 2052SOL    HW3 8212   2.513   1.551   3.276 -0.5863  0.6324  0.6180
 2052SOL    MW4 8213   2.520   1.536   3.361  0.0460  0.5635  0.5589
 2053SOL     OW 8214   2.273   1.659   3.453 -0.5045  0.3685  0.0013
 2053SOL    HW2 8215   2.272   1.660   3.549 -0.6624  0.0176  0.0040
 2053SOL    HW3 8216   2.356   1.617   3.430 -0.1355  1.0965 -0.0234
 2053SOL    MW4 8217   2.284   1.654   3.463 -0.4766  0.4183 -0.0019
 2054SOL     OW 8218   2.270   1.949   3.388  0.3453  0.1591 -0.7666
 2054SOL    HW2 8219   2.258   1.861   3.422  0.0070  0.1192 -0.9811
 2054SOL    HW3 8220   2.239   1.944   3.297  0.1416  0.5429 -0.7212
 2054SOL    MW4 8221   2.264   1.937   3.380  0.2735  0.2046 -0.7889
 2055SOL     OW 8222   2.488   2.062   3.504  0.4416 -0.3846 -0.5778
 2055SOL    HW2 8223   2.478   2.058   3.599  1.5640 -2.3974 -0.5096
 2055SOL    HW3 8224   2.418   2.007   3.470  1.5875 -1.7825 -0.7644
 2055SOL    MW4 8225   2.478   2.054   3.512  0.7410 -0.8347 -0.5934
 2056SOL     OW 8226   2.475   2.320   3.381 -0.6136 -0.0186  0.0638
 2056SOL    HW2 8227   2.558   2.353   3.417 -0.4329 -0.2413 -0.1435
 2056SOL    HW3 8228   2.473   2.228   3.405 -0.7243 -0.0524 -0.0740
 2056SOL    MW4 8229   2.486   2.312   3.389 -0.6042 -0.0525  0.0184
 2057SOL     OW 8230   2.253   2.486   3.481 -0.1137  0.1570 -0.7727
 2057SOL    HW2 8231   2.260   2.575   3.447  0.3895  0.4870  0.1927
 2057SOL    HW3 8232   2.330   2.441   3.445  0.4964  0.5447  0.0595
 2057SOL    MW4 8233   2.264   2.492   3.471  0.0334  0.2518 -0.5355
 2058SOL     OW 8234   2.266   2.729   3.374 -0.4380 -0.2432 -0.2130
 2058SOL    HW2 8235   2.186   2.778   3.393 -0.6342 -0.5660 -0.1907
 2058SOL    HW3 8236   2.260   2.709   3.280 -0.2761 -0.0794 -0.2593
 2058SOL    MW4 8237   2.254   2.733   3.364 -0.4423 -0.2642 -0.2162
 2059SOL     OW 8238   2.474   2.835   3.522 -0.1493  0.2292 -0.0867
 2059SOL    HW2 8239   2.486   2.927   3.498 -0.0244  0.3842  0.5479
 2059SOL    HW3 8240   2.407   2.803   3.462 -1.7366  1.3052  1.0623
 2059SOL    MW4 8241   2.467   2.843   3.511 -0.3424  0.3915  0.1485
 2060SOL     OW 8242   2.457   3.080   3.394  0.0485  0.5097 -0.2078
 2060SOL    HW2 8243   2.520   3.133   3.442  0.5063 -0.1401 -0.0778
 2060SOL    HW3 8244   2.480   3.092   3.302  0.6952 -0.1333 -0.1334
 2060SOL    MW4 8245   2.468   3.089   3.388  0.1941  0.3390 -0.1810
 2061SOL     OW 8246   2.213   3.251   3.492  0.4345  0.0205 -0.1098
 2061SOL    HW2 8247   2.219   3.241   3.587  0.4647 -1.9772 -0.3026
 2061SOL    HW3 8248   2.284   3.197   3.458 -0.0950  0.0667 -1.3119
 2061SOL    MW4 8249   2.223   3.243   3.500  0.3686 -0.2372 -0.2940
 2062SOL     OW 8250   2.247   3.523   3.390  0.3282  0.1181  0.5804
 2062SOL    HW2 8251   2.246   3.437   3.433  1.0419  0.2067  0.7697
 2062SOL    HW3 8252   2.234   3.503   3.297 -0.8260 -0.0987  0.7789
 2062SOL    MW4 8253   2.245   3.509   3.383  0.2701  0.1011  0.6316
 2063SOL     OW 8254   2.479   3.635   3.480  0.5408  0.0886  0.2675
 2063SOL    HW2 8255   2.489   3.718   3.433  1.9604 -0.6723 -0.7844
 2063SOL    HW3 8256   2.400   3.596   3.442  0.5713  0.3826 -0.1015
 2063SOL    MW4 8257   2.470   3.641   3.469  0.7319  0.0269  0.0799
 2064SOL     OW 8258   2.496   3.895   3.385 -0.1395 -0.3328 -0.2063
 2064SOL    HW2 8259   2.567   3.948   3.421 -0.8076  1.2876 -1.2146
 2064SOL    HW3 8260   2.418   3.925   3.430 -0.5364 -0.3977 -0.8399
 2064SOL    MW4 8261   2.495   3.906   3.396 -0.2801 -0.1273 -0.4230
 2065SOL     OW 8262   2.273   4.021   3.509  0.5392 -0.1380 -0.3786
 2065SOL    HW2 8263   2.271   4.111   3.475  0.0186  0.5837  1.4853
 2065SOL    HW3 8264   2.204   3.976   3.460 -0.4184  0.9655 -0.0849
 2065SOL    MW4 8265   2.263   4.027   3.498  0.3443  0.1025 -0.0942
 2066SOL     OW 8266   2.205   4.304   3.427 -0.0244 -0.3756 -0.1612
 2066SOL    HW2 8267   2.129   4.350   3.463 -0.5769 -1.3422 -0.0701
 2066SOL    HW3 8268   2.186   4.294   3.334 -0.4208 -1.3836  0.0168
 2066SOL    MW4 8269   2.193   4.309   3.420 -0.1497 -0.6356 -0.1254
 2067SOL     OW 8270   2.470   4.408   3.528 -0.4966 -0.0281  0.0516
 2067SOL    HW2 8271   2.476   4.410   3.623 -1.3789 -0.8136  0.1366
 2067SOL    HW3 8272   2.378   4.386   3.511 -0.5472  0.9524 -0.9869
 2067SOL    MW4 8273   2.458   4.405   3.538 -0.6199 -0.0033 -0.0741
 2068SOL     OW 8274   2.865   4.661   3.386  0.1060  0.3998  0.5267
 2068SOL    HW2 8275   2.788   4.711   3.412  0.6231  1.6293 -0.2268
 2068SOL    HW3 8276   2.872   4.676   3.292  1.3466  0.4496  0.6128
 2068SOL    MW4 8277   2.856   4.670   3.377  0.3378  0.5684  0.4389
 2069SOL     OW 8278   2.658   0.121   3.507  0.5221  0.1113  0.0246
 2069SOL    HW2 8279   2.664   0.205   3.463 -1.7743  1.8518  2.8329
 2069SOL    HW3 8280   2.570   0.088   3.486  0.2465 -0.0923  1.4076
 2069SOL    MW4 8281   2.647   0.127   3.498  0.1826  0.3141  0.5779
 2070SOL     OW 8282   2.661   0.354   3.386  0.2432 -0.0153 -0.0569
 2070SOL    HW2 8283   2.735   0.396   3.429 -0.0822  0.8848 -0.3686
 2070SOL    HW3 8284   2.674   0.371   3.293  0.9009 -1.8818 -0.3226
 2070SOL    MW4 8285   2.672   0.361   3.379  0.2868 -0.1428 -0.1333
 2071SOL     OW 8286   2.909   0.521   3.465  0.0036 -0.4367 -0.3301
 2071SOL    HW2 8287   2.928   0.537   3.557  0.6918  0.9564 -0.7123
 2071SOL    HW3 8288   2.910   0.608   3.424 -1.7024 -0.8735 -1.3911
 2071SOL    MW4 8289   2.911   0.535   3.472 -0.1307 -0.3104 -0.5207
 2072SOL     OW 8290   2.905   0.777   3.332  0.1043  0.3844 -0.1709
 2072SOL    HW2 8291   2.985   0.808   3.375  0.8391 -0.1239 -1.1478
 2072SOL    HW3 8292   2.836   0.795   3.395  1.2853 -1.2412  1.6402
 2072SOL    MW4 8293   2.907   0.784   3.346  0.3569  0.1029 -0.0608
 2073SOL     OW 8294   2.702   0.889   3.489 -0.2129  0.5154  0.1865
 2073SOL    HW2 8295   2.714   0.916   3.580  1.8978  1.2589 -0.2773
 2073SOL    HW3 8296   2.721   0.968   3.438  2.0466 -0.7807 -1.0339
 2073SOL    MW4 8297   2.706   0.903   3.494  0.3636  0.4424 -0.0358
 2074SOL     OW 8298   2.739   1.126   3.352 -0.1859 -0.3744  0.0734
 2074SOL    HW2 8299   2.779   1.209   3.379 -0.1125 -0.6599  0.8654
 2074SOL    HW3 8300   2.770   1.113   3.263 -3.0653  2.2246 -1.4004
 2074SOL    MW4 8301   2.749   1.135   3.344 -0.5560 -0.0693 -0.0162
 2075SOL     OW 8302   2.897   1.329   3.431 -0.1402 -0.1339  0.0315
 2075SOL    HW2 8303   2.897   1.328   3.526 -0.1848 -0.4861  0.0287
 2075SOL    HW3 8304   2.969   1.272   3.405  0.3323  0.5285 -0.1472
 2075SOL    MW4 8305   2.906   1.321   3.440 -0.0837 -0.0930  0.0074
 2076SOL     OW 8306   2.923   1.595   3.379 -0.4733  0.2657 -0.6531
 2076SOL    HW2 8307   2.845   1.637   3.416 -0.6551 -0.3730 -0.3016
 2076SOL    HW3 8308   2.912   1.502   3.399  0.7939  0.2804  0.1734
 2076SOL    MW4 8309   2.912   1.588   3.387 -0.3302  0.1835 -0.4981
 2077SOL     OW 8310   2.714   1.725   3.493 -0.0336 -0.1757 -0.4970
 2077SOL    HW2 8311   2.727   1.805   3.443  1.3540 -0.6788 -0.9739
 2077SOL    HW3 8312   2.647   1.677   3.444 -0.2780  0.3286 -0.6565
 2077SOL    MW4 8313   2.707   1.729   3.480  0.1171 -0.1755 -0.5810
 2078SOL     OW 8314   2.731   1.966   3.377 -0.0558  0.1025  0.0468
 2078SOL    HW2 8315   2.655   2.000   3.423  0.3247 -0.2768  0.9622
 2078SOL    HW3 8316   2.712   1.982   3.284 -0.9858  0.5284  0.3070
 2078SOL    MW4 8317   2.718   1.972   3.371 -0.1287  0.1086  0.2019
 2079SOL     OW 8318   2.955   2.089   3.470 -0.2246 -0.0037 -0.0567
 2079SOL    HW2 8319   2.949   2.108   3.564  1.0017  0.2159 -0.0041
 2079SOL    HW3 8320   2.877   2.038   3.450 -0.2371 -0.5050  1.2027
 2079SOL    MW4 8321   2.944   2.085   3.480 -0.0646 -0.0408  0.1166
 2080SOL     OW 8322   2.891   2.343   3.344 -0.1716 -0.1131 -0.5615
 2080SOL    HW2 8323   2.891   2.251   3.371  2.9486 -0.3916 -1.2483
 2080SOL    HW3 8324   2.875   2.340   3.250  1.0068 -0.0643 -0.7734
 2080SOL    MW4 8325   2.889   2.330   3.335  0.3955 -0.1433 -0.6802
 2081SOL     OW 8326   2.702   2.453   3.483  0.3052  0.1911 -0.5886
 2081SOL    HW2 8327   2.706   2.422   3.573 -0.2034 -1.1141 -1.0062
 2081SOL    HW3 8328   2.779   2.415   3.441  0.7860  1.1667 -0.5927
 2081SOL    MW4 8329   2.713   2.444   3.490  0.3016  0.1478 -0.6442
 2082SOL     OW 8330   2.723   2.708   3.425 -0.3158  0.0886 -0.5746
 2082SOL    HW2 8331   2.702   2.616   3.444  0.3728 -0.1068 -0.7664
 2082SOL    HW3 8332   2.641   2.755   3.441 -0.8222 -0.6388 -1.0111
 2082SOL    MW4 8333   2.709   2.702   3.429 -0.2918 -0.0331 -0.6573
 2083SOL     OW 8334   2.963   2.835   3.485 -0.1872  0.0094 -0.0851
 2083SOL    HW2 8335   2.976   2.856   3.578  0.4237  0.8883 -0.3665
 2083SOL    HW3 8336   2.879   2.789   3.483 -1.5394  2.3321  0.5919
 2083SOL    MW4 8337   2.953   2.832   3.497 -0.2851  0.4318 -0.0329
 2084SOL     OW 8338   2.936   3.114   3.410  0.1641 -0.2078  0.1674
 2084SOL    HW2 8339   2.955   3.023   3.433 -1.1745 -0.6711 -0.5287
 2084SOL    HW3 8340   2.924   3.113   3.316 -0.8817  0.5125  0.2879
 2084SOL    MW4 8341   2.937   3.102   3.401 -0.1502 -0.1738  0.0916
 2085SOL     OW 8342   2.681   3.237   3.476  0.1264 -0.4468  0.0520
 2085SOL    HW2 8343   2.677   3.221   3.571 -0.3508  0.3386  0.1681
 2085SOL    HW3 8344   2.767   3.204   3.450  1.0404  1.0650  1.0771
 2085SOL    MW4 8345   2.692   3.230   3.485  0.1841 -0.1438  0.2029
 2086SOL     OW 8346   2.685   3.485   3.372  0.2796  0.2062 -0.0613
 2086SOL    HW2 8347   2.680   3.397   3.410 -1.7223 -0.5226 -1.8813
 2086SOL    HW3 8348   2.615   3.533   3.414  0.8230  0.6845  0.3005
 2086SOL    MW4 8349   2.675   3.480   3.382  0.0875  0.1733 -0.2537
 2087SOL     OW 8350   2.906   3.608   3.501  0.5059  0.5871 -0.0263
 2087SOL    HW2 8351   2.906   3.693   3.457  2.9215  0.5267 -0.1966
 2087SOL    HW3 8352   2.834   3.560   3.460  0.7768  1.6135 -1.7589
 2087SOL    MW4 8353   2.896   3.613   3.490  0.8605  0.7145 -0.2775
 2088SOL     OW 8354   2.912   3.879   3.349  0.2158 -0.3989 -0.6505
 2088SOL    HW2 8355   2.990   3.917   3.390  1.4602 -1.0819 -2.3285
 2088SOL    HW3 8356   2.839   3.925   3.390  1.4400 -0.6259  1.8594
 2088SOL    MW4 8357   2.913   3.890   3.359  0.5417 -0.5190 -0.5407
 2089SOL     OW 8358   2.709   4.019   3.486  0.9185 -0.1375  0.4539
 2089SOL    HW2 8359   2.681   4.015   3.577  0.5417  1.4887  0.4199
 2089SOL    HW3 8360   2.703   4.112   3.463  1.7272 -0.4321 -0.9980
 2089SOL    MW4 8361   2.705   4.031   3.495  0.9756  0.0381  0.2580
 2090SOL     OW 8362   2.674   4.279   3.423 -0.2840 -0.0892  0.0771
 2090SOL    HW2 8363   2.754   4.319   3.455  0.0259 -1.0297  0.4966
 2090SOL    HW3 8364   2.604   4.330   3.463  0.0871 -1.1915  2.2426
 2090SOL    MW4 8365   2.675   4.291   3.432 -0.1941 -0.3586  0.4182
 2091SOL     OW 8366   2.933   4.390   3.486  0.2705  0.2450  0.0552
 2091SOL    HW2 8367   2.939   4.402   3.581  2.7525  0.1882 -0.0518
 2091SOL    HW3 8368   2.908   4.476   3.453 -0.6531  0.2578  0.7606
 2091SOL    MW4 8369   2.931   4.403   3.494  0.4761  0.2394  0.1345
 2092SOL     OW 8370   3.347   0.014   3.411 -0.4381  0.3976 -0.3072
 2092SOL    HW2 8371   3.264   0.045   3.447 -0.2501  1.0387 -0.4157
 2092SOL    HW3 8372   3.336   0.018   3.316 -0.4082  0.1461 -0.3219
 2092SOL    MW4 8373   3.335   0.019   3.403 -0.4094  0.4492 -0.3233
 2093SOL     OW 8374   3.095   0.095   3.527 -0.0956 -0.5106 -0.0570
 2093SOL    HW2 8375   3.105   0.187   3.503 -2.6797  0.5738  2.7525
 2093SOL    HW3 8376   3.020   0.065   3.475  0.6654 -1.0552 -0.8750
 2093SOL    MW4 8377   3.087   0.103   3.517 -0.3362 -0.4394  0.2058
 2094SOL     OW 8378   3.110   0.337   3.394  0.0369  0.5344 -0.2893
 2094SOL    HW2 8379   3.035   0.393   3.415  0.6001  1.4166 -0.5761
 2094SOL    HW3 8380   3.109   0.332   3.298  0.9646  1.4294 -0.3513
 2094SOL    MW4 8381   3.100   0.344   3.384  0.2339  0.7688 -0.3350
 2095SOL     OW 8382   3.350   0.493   3.461  0.0575  0.2214 -0.4848
 2095SOL    HW2 8383   3.355   0.522   3.552  0.1291 -0.1932 -0.3594
 2095SOL    HW3 8384   3.264   0.452   3.453  0.7362 -1.2716 -0.1635
 2095SOL    MW4 8385   3.339   0.492   3.472  0.1562 -0.0303 -0.4258
 2096SOL     OW 8386   3.369   0.762   3.368 -0.1771  0.0445 -0.1564
 2096SOL    HW2 8387   3.446   0.810   3.400 -0.3593  2.0102 -2.5069
 2096SOL    HW3 8388   3.371   0.679   3.415  1.9229  1.1222  1.7311
 2096SOL    MW4 8389   3.380   0.757   3.378  0.0761  0.4461 -0.2174
 2097SOL     OW 8390   3.141   0.911   3.443  0.3434 -0.5094  0.0707
 2097SOL    HW2 8391   3.133   0.998   3.405 -1.3980 -1.0829 -0.9496
 2097SOL    HW3 8392   3.223   0.876   3.406  1.1967  0.7708  0.7057
 2097SOL    MW4 8393   3.151   0.918   3.433  0.2263 -0.4162  0.0198
 2098SOL     OW 8394   3.122   1.162   3.338  0.0105  0.1212 -0.2874
 2098SOL    HW2 8395   3.202   1.211   3.357  0.1050 -0.4248  0.7576
 2098SOL    HW3 8396   3.126   1.146   3.243  1.4364 -0.4345 -0.1436
 2098SOL    MW4 8397   3.133   1.167   3.328  0.2110 -0.0241 -0.1304
 2099SOL     OW 8398   3.339   1.295   3.458  0.1181  0.1185 -0.3942
 2099SOL    HW2 8399   3.413   1.239   3.436  0.0243 -0.0658 -0.2327
 2099SOL    HW3 8400   3.363   1.381   3.422  0.9933  0.3780  0.7923
 2099SOL    MW4 8401   3.352   1.299   3.450  0.2213  0.1285 -0.2165
 2100SOL     OW 8402   3.379   1.535   3.341  0.0280  0.0031  0.1859
 2100SOL    HW2 8403   3.450   1.575   3.391  0.1588  1.0267 -0.8154
 2100SOL    HW3 8404   3.299   1.570   3.380  0.1613  2.3870 -1.5997
 2100SOL    MW4 8405   3.377   1.545   3.353  0.0629  0.4526 -0.1817
 2101SOL     OW 8406   3.162   1.645   3.476 -0.1684 -0.3515  0.2441
 2101SOL    HW2 8407   3.167   1.736   3.446 -0.6824 -0.5592 -0.4803
 2101SOL    HW3 8408   3.074   1.617   3.453  0.1675 -1.1989 -0.0114
 2101SOL    MW4 8409   3.151   1.653   3.469 -0.1919 -0.4908  0.1149
 2102SOL     OW 8410   3.167   1.915   3.384  0.1530 -0.2648  0.3833
 2102SOL    HW2 8411   3.091   1.964   3.417 -0.0154 -0.6131  0.5175
 2102SOL    HW3 8412   3.163   1.924   3.289 -0.0929 -0.3325  0.3874
 2102SOL    MW4 8413   3.157   1.923   3.376  0.0982 -0.3197  0.4015
 2103SOL     OW 8414   3.398   2.085   3.503 -0.7619  0.3688  0.0482
 2103SOL    HW2 8415   3.405   2.162   3.447 -0.3381 -0.3288 -0.8917
 2103SOL    HW3 8416   3.312   2.048   3.482 -0.8592  0.4491  0.3080
 2103SOL    MW4 8417   3.387   2.090   3.493 -0.7188  0.2871 -0.0415
 2104SOL     OW 8418   3.384   2.332   3.358 -0.2828 -0.0321 -0.5062
 2104SOL    HW2 8419   3.455   2.371   3.409 -2.1071  0.7786  1.4910
 2104SOL    HW3 8420   3.307   2.385   3.381 -2.2923 -3.1912  0.2761
 2104SOL    MW4 8421   3.383   2.344   3.368 -0.7885 -0.3421 -0.1397
 2105SOL     OW 8422   3.139   2.456   3.478  0.4360 -0.0566 -0.2235
 2105SOL    HW2 8423   3.141   2.540   3.433 -1.1769  0.0969 -0.0435
 2105SOL    HW3 8424   3.072   2.406   3.433  1.5632 -1.3650 -0.4921
 2105SOL    MW4 8425   3.131   2.461   3.466  0.3719 -0.2091 -0.2353
 2106SOL     OW 8426   3.179   2.716   3.360 -0.7825  0.1352 -0.2746
 2106SOL    HW2 8427   3.247   2.753   3.418 -0.8521 -1.8386  1.1220
 2106SOL    HW3 8428   3.097   2.743   3.400 -0.8318 -1.3493  0.6662
 2106SOL    MW4 8429   3.177   2.724   3.373 -0.7982 -0.3211  0.0339
 2107SOL     OW 8430   3.363   2.824   3.526  0.0995 -0.2363 -0.0644
 2107SOL    HW2 8431   3.429   2.769   3.484  0.4981  0.2773 -0.1264
 2107SOL    HW3 8432   3.365   2.906   3.477 -0.0084  0.0771  0.4403
 2107SOL    MW4 8433   3.372   2.828   3.514  0.1380 -0.1273 -0.0064
 2108SOL     OW 8434   3.383   3.084   3.398 -0.0803  0.2779  0.3721
 2108SOL    HW2 8435   3.457   3.132   3.436  0.0024  0.9369 -0.6029
 2108SOL    HW3 8436   3.306   3.124   3.438  0.0227  0.6295  0.2153
 2108SOL    MW4 8437   3.383   3.095   3.409 -0.0558  0.4113  0.2229
 2109SOL     OW 8438   3.162   3.261   3.510  0.9200  0.3734 -0.2762
 2109SOL    HW2 8439   3.174   3.342   3.460  0.5267  0.1408 -0.7527
 2109SOL    HW3 8440   3.088   3.218   3.467 -0.0570  0.6339  1.0923
 2109SOL    MW4 8441   3.154   3.266   3.498  0.7393  0.3767 -0.1585
 2110SOL     OW 8442   3.149   3.507   3.395  0.0911 -0.1656 -0.3030
 2110SOL    HW2 8443   3.071   3.552   3.428 -0.6525 -1.1192 -0.7612
 2110SOL    HW3 8444   3.140   3.509   3.300  1.0690  0.5013 -0.3833
 2110SOL    MW4 8445   3.138   3.513   3.387  0.1221 -0.2034 -0.3741
 2111SOL     OW 8446   3.375   3.629   3.503  0.3597 -0.1329 -0.1059
 2111SOL    HW2 8447   3.367   3.705   3.447  0.2673  0.0993  0.2195
 2111SOL    HW3 8448   3.304   3.571   3.475  0.1775  0.0773 -0.0816
 2111SOL    MW4 8449   3.365   3.631   3.492  0.3238 -0.0746 -0.0596
 2112SOL     OW 8450   3.351   3.854   3.331 -0.0605 -0.2539  0.0208
 2112SOL    HW2 8451   3.419   3.905   3.375 -0.1848  0.9088 -1.0731
 2112SOL    HW3 8452   3.269   3.894   3.360 -0.1717 -0.0357 -0.5849
 2112SOL    MW4 8453   3.349   3.866   3.340 -0.0918 -0.0720 -0.2034
 2113SOL     OW 8454   3.142   3.995   3.470 -0.1938  0.1476 -0.4691
 2113SOL    HW2 8455   3.136   4.014   3.564  2.0768 -0.2103 -0.2204
 2113SOL    HW3 8456   3.137   4.081   3.428  0.0707  0.4212  0.0504
 2113SOL    MW4 8457   3.140   4.009   3.477  0.1409  0.1364 -0.3679
 2114SOL     OW 8458   3.147   4.253   3.370 -0.0452  0.3814  0.2915
 2114SOL    HW2 8459   3.220   4.300   3.409  0.6461 -1.0532  0.7408
 2114SOL    HW3 8460   3.069   4.292   3.410  0.5651  0.4348  1.4412
 2114SOL    MW4 8461   3.146   4.265   3.380  0.1268  0.1993  0.5028
 2115SOL     OW 8462   3.364   4.408   3.483  0.5160  0.0102 -0.2602
 2115SOL    HW2 8463   3.351   4.393   3.576 -1.4954 -1.6043 -0.7831
 2115SOL    HW3 8464   3.358   4.503   3.473 -1.7942 -0.0046  0.8857
 2115SOL    MW4 8465   3.362   4.419   3.494 -0.0541 -0.2050 -0.1779
 2116SOL     OW 8466   3.837   4.636   3.402 -0.0611  0.1503  0.2482
 2116SOL    HW2 8467   3.760   4.680   3.438 -0.6318 -1.2430  0.7938
 2116SOL    HW3 8468   3.828   4.644   3.308 -0.4251  0.7431  0.3327
 2116SOL    MW4 8469   3.826   4.643   3.395 -0.1843  0.0443  0.3312
 2117SOL     OW 8470   3.612   0.119   3.511  0.2350 -0.3139  0.0433
 2117SOL    HW2 8471   3.597   0.195   3.455  1.6348 -1.5478 -2.0915
 2117SOL    HW3 8472   3.530   0.071   3.509 -0.2782  0.5303  0.4641
 2117SOL    MW4 8473   3.599   0.123   3.503  0.3519 -0.3653 -0.1829
 2118SOL     OW 8474   3.590   0.371   3.401  0.4198  0.3091  0.1773
 2118SOL    HW2 8475   3.661   0.424   3.438  0.4034 -0.5776  1.5205
 2118SOL    HW3 8476   3.510   0.411   3.436  0.3031  0.5926 -0.3991
 2118SOL    MW4 8477   3.589   0.383   3.411  0.4022  0.2295  0.2787
 2119SOL     OW 8478   3.798   0.486   3.550 -0.4427 -0.1423  0.0524
 2119SOL    HW2 8479   3.821   0.484   3.643 -1.3307  0.8215  0.3043
 2119SOL    HW3 8480   3.879   0.462   3.505  0.1351 -0.1059  1.0495
 2119SOL    MW4 8481   3.812   0.483   3.556 -0.4838 -0.0103  0.2172
 2120SOL     OW 8482   3.807   0.740   3.433 -0.1030  0.2686 -0.0388
 2120SOL    HW2 8483   3.890   0.778   3.463  0.9470 -0.4350 -1.9541
 2120SOL    HW3 8484   3.803   0.656   3.477  0.5544  0.0032 -0.4725
 2120SOL    MW4 8485   3.818   0.734   3.443  0.1221  0.1407 -0.3488
 2121SOL     OW 8486   3.589   0.892   3.501 -0.1614  0.4544 -0.3319
 2121SOL    HW2 8487   3.583   0.905   3.595 -1.0098 -1.2562 -0.1307
 2121SOL    HW3 8488   3.661   0.831   3.489 -0.4513  0.1837 -0.7282
 2121SOL    MW4 8489   3.598   0.886   3.511 -0.3116  0.1930 -0.3576
 2122SOL     OW 8490   3.564   1.147   3.401 -0.6217  0.0895  0.2320
 2122SOL    HW2 8491   3.578   1.056   3.428  0.1180  0.0454 -0.2928
 2122SOL    HW3 8492   3.569   1.145   3.305  0.4831  0.8530  0.2617
 2122SOL    MW4 8493   3.566   1.135   3.392 -0.3786  0.1844  0.1667
 2123SOL     OW 8494   3.797   1.282   3.449 -0.3439  0.2730 -0.3092
 2123SOL    HW2 8495   3.809   1.283   3.544  0.4110  0.3954 -0.4004
 2123SOL    HW3 8496   3.719   1.228   3.435 -0.0537 -0.3310  0.3403
 2123SOL    MW4 8497   3.788   1.275   3.460 -0.2060  0.2095 -0.2356
 2124SOL     OW 8498   3.803   1.560   3.371  0.8668 -0.2732 -0.3499
 2124SOL    HW2 8499   3.886   1.593   3.405  0.7854  0.0555 -0.4594
 2124SOL    HW3 8500   3.794   1.473   3.407  0.7690  0.0850  0.4897
 2124SOL    MW4 8501   3.813   1.553   3.380  0.8430 -0.1826 -0.2537
 2125SOL     OW 8502   3.584   1.685   3.468 -0.5107  0.6896 -0.1759
 2125SOL    HW2 8503   3.586   1.777   3.442 -1.1765  1.2495  1.6925
 2125SOL    HW3 8504   3.657   1.645   3.420 -0.8463  1.9617 -1.7932
 2125SOL    MW4 8505   3.594   1.692   3.458 -0.6428  0.9313 -0.1428
 2126SOL     OW 8506   3.597   1.928   3.364  0.4043 -0.3675 -0.0695
 2126SOL    HW2 8507   3.681   1.969   3.382  0.1971 -0.1120  0.2993
 2126SOL    HW3 8508   3.533   1.984   3.407 -0.3601  1.7824 -3.7573
 2126SOL    MW4 8509   3.600   1.941   3.372  0.2761 -0.0502 -0.5076
 2127SOL     OW 8510   3.811   2.060   3.460 -0.2312  0.0974  0.0390
 2127SOL    HW2 8511   3.809   2.051   3.555 -0.9284 -1.8684 -0.1294
 2127SOL    HW3 8512   3.884   2.005   3.432 -0.9184 -0.4673 -0.6608
 2127SOL    MW4 8513   3.820   2.052   3.468 -0.4141 -0.2363 -0.0756
 2128SOL     OW 8514   3.789   2.322   3.405  0.2504  0.0493 -0.5604
 2128SOL    HW2 8515   3.876   2.357   3.420  0.9229 -1.6186 -0.4148
 2128SOL    HW3 8516   3.802   2.227   3.401 -1.9751 -0.4869  2.6567
 2128SOL    MW4 8517   3.802   2.314   3.406  0.0458 -0.2413 -0.1166
 2129SOL     OW 8518   3.573   2.427   3.532 -0.3901  0.6206  0.1332
 2129SOL    HW2 8519   3.588   2.518   3.507 -0.4229  0.8706  0.9998
 2129SOL    HW3 8520   3.650   2.380   3.499 -0.3845  0.9582 -0.3322
 2129SOL    MW4 8521   3.586   2.433   3.524 -0.3936  0.6981  0.1864
 2130SOL     OW 8522   3.580   2.685   3.415  0.3594 -0.3551  0.4389
 2130SOL    HW2 8523   3.666   2.716   3.445 -0.1766  1.3240  0.3390
 2130SOL    HW3 8524   3.582   2.697   3.320 -0.3643  0.7463  0.5479
 2130SOL    MW4 8525   3.591   2.691   3.406  0.1936  0.0119  0.4404
 2131SOL     OW 8526   3.818   2.822   3.504 -0.0388 -0.4320  0.2937
 2131SOL    HW2 8527   3.832   2.831   3.598 -0.1934 -1.9332  0.4768
 2131SOL    HW3 8528   3.800   2.911   3.473  0.3689  0.1139  1.6201
 2131SOL    MW4 8529   3.817   2.835   3.512 -0.0055 -0.5579  0.4926
 2132SOL     OW 8530   3.795   3.085   3.375  0.0372  0.2302 -0.2389
 2132SOL    HW2 8531   3.869   3.126   3.420 -0.6830  1.5095 -0.1859
 2132SOL    HW3 8532   3.811   3.101   3.282  0.0503  0.1246 -0.2555
 2132SOL    MW4 8533   3.807   3.093   3.369 -0.0560  0.3850 -0.2341
 2133SOL     OW 8534   3.592   3.240   3.479  0.1313  0.1765  0.3578
 2133SOL    HW2 8535   3.613   3.329   3.449  1.8044 -0.2231  0.3062
 2133SOL    HW3 8536   3.659   3.185   3.439  0.6151 -0.7848  2.4541
 2133SOL    MW4 8537   3.603   3.245   3.470  0.4160 -0.0031  0.6278
 2134SOL     OW 8538   3.629   3.493   3.421 -0.0941 -0.4586  0.2151
 2134SOL    HW2 8539   3.553   3.544   3.450  0.7759  0.7048  0.4913
 2134SOL    HW3 8540   3.637   3.513   3.328 -0.1463 -0.6176  0.1757
 2134SOL    MW4 8541   3.620   3.502   3.412  0.0138 -0.3264  0.2463
 2135SOL     OW 8542   3.834   3.656   3.494  0.2381 -0.9093 -0.1518
 2135SOL    HW2 8543   3.830   3.653   3.590  0.2326 -0.5149 -0.1411
 2135SOL    HW3 8544   3.756   3.607   3.466 -0.1616 -0.3873  0.0441
 2135SOL    MW4 8545   3.823   3.649   3.503  0.1845 -0.7885 -0.1247
 2136SOL     OW 8546   3.838   3.917   3.399  0.4082 -0.4993  0.2332
 2136SOL    HW2 8547   3.754   3.948   3.434  0.6788 -0.9812  1.3264
 2136SOL    HW3 8548   3.842   3.825   3.425  1.6989 -0.2330  1.0181
 2136SOL    MW4 8549   3.827   3.909   3.407  0.6139 -0.5279  0.4809
 2137SOL     OW 8550   3.586   3.984   3.473  0.3359  0.3987 -0.0876
 2137SOL    HW2 8551   3.594   4.006   3.566 -2.4770 -0.7759  0.4867
 2137SOL    HW3 8552   3.579   4.069   3.429  1.4907  0.9595  0.7831
 2137SOL    MW4 8553   3.586   3.998   3.480  0.1171  0.3176  0.1032
 2138SOL     OW 8554   3.581   4.246   3.387  0.0157  0.1024  0.3347
 2138SOL    HW2 8555   3.514   4.304   3.422  0.0627  0.6754 -0.5337
 2138SOL    HW3 8556   3.577   4.257   3.292  1.8260  0.7054  0.3031
 2138SOL    MW4 8557   3.572   4.255   3.379  0.2608  0.2570  0.2160
 2139SOL     OW 8558   3.807   4.360   3.505 -0.3666 -0.1091  0.1230
 2139SOL    HW2 8559   3.732   4.315   3.467  0.8348 -1.2487 -0.9426
 2139SOL    HW3 8560   3.806   4.447   3.465  0.3520 -0.9841 -1.8575
 2139SOL    MW4 8561   3.797   4.366   3.495 -0.1135 -0.3748 -0.2789
 2140SOL     OW 8562   4.276   0.017   3.372 -0.3374 -0.0356 -0.3704
 2140SOL    HW2 8563   4.270  -0.077   3.391 -1.5839  0.2196  0.5504
 2140SOL    HW3 8564   4.361   0.043   3.409  0.1647 -0.8435 -0.9123
 2140SOL    MW4 8565   4.287   0.008   3.380 -0.4354 -0.1087 -0.3202
 2141SOL     OW 8566   4.055   0.125   3.503  0.0641 -0.0594 -0.0319
 2141SOL    HW2 8567   4.140   0.092   3.474  0.4748  2.1447 -1.5472
 2141SOL    HW3 8568   3.992   0.060   3.473  1.0445 -0.6517 -0.8199
 2141SOL    MW4 8569   4.058   0.112   3.495  0.2475  0.1533 -0.3357
 2142SOL     OW 8570   4.030   0.403   3.402  0.0855  0.2896 -0.3207
 2142SOL    HW2 8571   4.039   0.309   3.418  1.6613  0.7362  1.5967
 2142SOL    HW3 8572   4.028   0.411   3.306  1.3410 -1.5732 -0.5241
 2142SOL    MW4 8573   4.031   0.392   3.391  0.4587  0.1028 -0.0944
 2143SOL     OW 8574   4.277   0.509   3.488 -0.1518 -0.1039 -0.2693
 2143SOL    HW2 8575   4.265   0.604   3.476 -0.0774  0.0115  0.5709
 2143SOL    HW3 8576   4.194   0.471   3.460  0.1728  0.1227 -1.6117
 2143SOL    MW4 8577   4.265   0.517   3.483 -0.0997 -0.0588 -0.3355
 2144SOL     OW 8578   4.245   0.771   3.424  0.8126 -0.0405 -0.1394
 2144SOL    HW2 8579   4.324   0.810   3.460  1.0484 -0.4706 -0.1879
 2144SOL    HW3 8580   4.260   0.766   3.330  0.5138  0.3622 -0.2093
 2144SOL    MW4 8581   4.257   0.776   3.416  0.8044 -0.0441 -0.1550
 2145SOL     OW 8582   4.031   0.893   3.493 -0.2450 -0.3679 -0.0512
 2145SOL    HW2 8583   4.024   0.970   3.437  0.1796  0.8810  1.5718
 2145SOL    HW3 8584   4.110   0.849   3.463 -0.2029  0.1031 -0.6539
 2145SOL    MW4 8585   4.041   0.898   3.482 -0.1831 -0.1410  0.0839
 2146SOL     OW 8586   4.024   1.151   3.362  0.0887 -0.3171  0.1424
 2146SOL    HW2 8587   4.106   1.178   3.404 -0.0872 -0.5458  0.6353
 2146SOL    HW3 8588   3.958   1.209   3.399 -0.0600 -0.4820  0.1317
 2146SOL    MW4 8589   4.026   1.162   3.372  0.0463 -0.3692  0.2060
 2147SOL     OW 8590   4.223   1.273   3.515  0.5077  0.1985  0.5240
 2147SOL    HW2 8591   4.214   1.362   3.482  0.3801 -0.3575 -0.9375
 2147SOL    HW3 8592   4.315   1.251   3.501  0.0757 -0.6510 -1.0210
 2147SOL    MW4 8593   4.234   1.282   3.509  0.4334  0.0130  0.1273
 2148SOL     OW 8594   4.264   1.538   3.411 -0.2177 -0.2458 -0.0199
 2148SOL    HW2 8595   4.187   1.586   3.441 -0.1212  0.0739 -0.2846
 2148SOL    HW3 8596   4.255   1.534   3.316 -0.9614 -2.0074  0.0921
 2148SOL    MW4 8597   4.253   1.543   3.402 -0.3028 -0.4359 -0.0401
 2149SOL     OW 8598   4.021   1.656   3.505  0.4411 -0.4081 -0.5731
 2149SOL    HW2 8599   4.021   1.672   3.599  0.3629 -2.2621 -0.2342
 2149SOL    HW3 8600   4.035   1.742   3.466  0.2204  0.4193  1.1191
 2149SOL    MW4 8601   4.023   1.669   3.512  0.4015 -0.5436 -0.3049
 2150SOL     OW 8602   4.021   1.908   3.378 -0.1323  0.2545  0.0019
 2150SOL    HW2 8603   4.095   1.959   3.412  1.3180 -1.8352  0.0750
 2150SOL    HW3 8604   4.026   1.919   3.283  0.3138  0.0636  0.0034
 2150SOL    MW4 8605   4.032   1.916   3.370  0.1183 -0.0464  0.0119
 2151SOL     OW 8606   4.216   2.063   3.490  0.1508  0.5712  0.0374
 2151SOL    HW2 8607   4.234   2.148   3.450  1.6410 -0.2892 -1.1376
 2151SOL    HW3 8608   4.300   2.017   3.490 -1.0875 -1.7801 -1.4271
 2151SOL    MW4 8609   4.229   2.068   3.485  0.1845  0.1476 -0.3114
 2152SOL     OW 8610   4.269   2.319   3.388  0.1402 -0.5278 -0.1192
 2152SOL    HW2 8611   4.181   2.343   3.415 -0.5129 -3.1273  0.2601
 2152SOL    HW3 8612   4.265   2.317   3.292  0.0203  0.1329 -0.1298
 2152SOL    MW4 8613   4.257   2.322   3.379  0.0381 -0.7837 -0.0708
 2153SOL     OW 8614   4.029   2.433   3.455 -0.5774  0.0241  0.3148
 2153SOL    HW2 8615   4.014   2.454   3.547 -1.0484  0.5966  0.1133
 2153SOL    HW3 8616   4.038   2.519   3.412  0.5253 -0.2551 -0.0250
 2153SOL    MW4 8617   4.028   2.447   3.461 -0.4945  0.0627  0.2434
 2154SOL     OW 8618   4.033   2.691   3.378 -0.0569 -0.0584 -0.0924
 2154SOL    HW2 8619   4.105   2.732   3.426  0.0338  0.0973 -0.3548
 2154SOL    HW3 8620   3.955   2.738   3.408 -0.0201 -0.0780  0.0313
 2154SOL    MW4 8621   4.032   2.703   3.388 -0.0401 -0.0403 -0.1111
 2155SOL     OW 8622   4.242   2.810   3.484 -0.0225  0.1548  0.2195
 2155SOL    HW2 8623   4.249   2.806   3.579 -0.0775  1.5716  0.2923
 2155SOL    HW3 8624   4.329   2.786   3.453  0.4862  1.3224  0.6877
 2155SOL    MW4 8625   4.254   2.806   3.492  0.0377  0.4959  0.2909
 2156SOL     OW 8626   4.251   3.074   3.407  0.0236 -0.1263 -0.2152
 2156SOL    HW2 8627   4.255   2.982   3.433  1.9363  0.0248  0.1348
 2156SOL    HW3 8628   4.258   3.073   3.312  1.4124 -0.2947 -0.1201
 2156SOL    MW4 8629   4.253   3.062   3.398  0.4597 -0.1287 -0.1564
 2157SOL     OW 8630   4.011   3.202   3.509  0.3137  0.2388  0.4344
 2157SOL    HW2 8631   4.006   3.297   3.501  1.1346  0.1141 -2.0324
 2157SOL    HW3 8632   4.090   3.178   3.461  0.2124 -1.6897  1.1778
 2157SOL    MW4 8633   4.021   3.211   3.502  0.4086 -0.0319  0.2069
 2158SOL     OW 8634   4.056   3.492   3.451 -0.1970  0.3790 -0.0638
 2158SOL    HW2 8635   4.133   3.519   3.500 -0.4716 -1.3269  1.3184
 2158SOL    HW3 8636   3.996   3.567   3.456  0.0584  0.4692  1.6103
 2158SOL    MW4 8637   4.058   3.506   3.458 -0.1993  0.1657  0.3393
 2159SOL     OW 8638   4.294   3.614   3.504  0.0052 -0.6828 -0.1710
 2159SOL    HW2 8639   4.294   3.633   3.597  0.8043 -1.3157 -0.0382
 2159SOL    HW3 8640   4.281   3.699   3.462 -0.7016 -0.4465  0.5191
 2159SOL    MW4 8641   4.293   3.627   3.511  0.0172 -0.7350 -0.0622
 2160SOL     OW 8642   4.285   3.870   3.407 -0.2274  0.3410  0.5332
 2160SOL    HW2 8643   4.362   3.915   3.442  0.1634  0.1125 -0.0328
 2160SOL    HW3 8644   4.276   3.904   3.318  1.0478 -1.9249 -0.4885
 2160SOL    MW4 8645   4.294   3.881   3.400 -0.0076  0.0119  0.3240
 2161SOL     OW 8646   4.072   3.989   3.533 -0.4423  0.4966  0.2251
 2161SOL    HW2 8647   4.145   3.942   3.495 -0.5946 -0.4621  1.1004
 2161SOL    HW3 8648   3.994   3.953   3.490 -0.5614 -0.0950  0.9233
 2161SOL    MW4 8649   4.071   3.978   3.522 -0.4787  0.2921  0.4327
 2162SOL     OW 8650   4.062   4.255   3.409 -0.0617  0.1751 -0.1385
 2162SOL    HW2 8651   4.053   4.168   3.447 -1.5157 -0.7877 -2.5987
 2162SOL    HW3 8652   3.985   4.303   3.440 -0.5176 -0.1725 -0.7272
 2162SOL    MW4 8653   4.051   4.250   3.418 -0.3138  0.0024 -0.5407
 2163SOL     OW 8654   4.281   4.417   3.492  0.2070 -0.2977 -0.2199
 2163SOL    HW2 8655   4.295   4.421   3.586 -0.3744  1.2507 -0.1797
 2163SOL    HW3 8656   4.202   4.365   3.481 -1.3402  1.8592  0.3437
 2163SOL    MW4 8657   4.273   4.411   3.503 -0.0739  0.1907 -0.1404
 2164SOL     OW 8658   0.270   0.010   3.883  0.5803 -0.5484  0.0466
 2164SOL    HW2 8659   0.269   0.014   3.978  0.5900  0.4618  0.0104
 2164SOL    HW3 8660   0.199   0.068   3.856  1.3311  0.0729 -0.5894
 2164SOL    MW4 8661   0.260   0.018   3.892  0.6807 -0.3331 -0.0422
 2165SOL     OW 8662   0.057   0.145   3.777  0.1086 -0.2440 -0.1075
 2165SOL    HW2 8663   0.035   0.233   3.807 -0.5618 -0.5471  0.3223
 2165SOL    HW3 8664   0.041   0.146   3.683 -1.4317 -0.3498  0.1371
 2165SOL    MW4 8665   0.052   0.157   3.769 -0.1831 -0.2980 -0.0186
 2166SOL     OW 8666   0.020   0.393   3.891 -0.2003  0.0321  0.4013
 2166SOL    HW2 8667  -0.050   0.437   3.842  1.0633  0.5038 -1.0245
 2166SOL    HW3 8668   0.099   0.444   3.871  0.3804  0.1195  2.8022
 2166SOL    MW4 8669   0.021   0.405   3.882  0.0431  0.1059  0.5300
 2167SOL     OW 8670   0.262   0.535   3.828  0.2199  0.0984  0.1177
 2167SOL    HW2 8671   0.241   0.627   3.848 -0.8854 -0.3461  1.0353
 2167SOL    HW3 8672   0.288   0.536   3.736 -0.0196  1.2971  0.0580
 2167SOL    MW4 8673   0.263   0.548   3.818  0.0425  0.1979  0.2306
 2168SOL     OW 8674   0.247   0.803   3.907 -0.2137 -0.4558 -0.5283
 2168SOL    HW2 8675   0.244   0.792   4.002  0.4534 -2.1731 -0.6930
 2168SOL    HW3 8676   0.164   0.846   3.885  0.6615  2.1650  1.0732
 2168SOL    MW4 8677   0.235   0.808   3.917 -0.0102 -0.3365 -0.3388
 2169SOL     OW 8678   0.034   0.906   3.787 -0.0811  0.3413 -0.0588
 2169SOL    HW2 8679  -0.042   0.863   3.827 -0.9202 -0.4236 -2.3776
 2169SOL    HW3 8680   0.036   0.993   3.827 -2.6579  0.6443 -0.4385
 2169SOL    MW4 8681   0.024   0.912   3.797 -0.5318  0.2803 -0.4148
 2170SOL     OW 8682   0.032   1.162   3.909  0.0157 -0.4832 -0.2636
 2170SOL    HW2 8683  -0.044   1.187   3.856 -0.0602 -0.0915  0.0259
 2170SOL    HW3 8684   0.102   1.220   3.880  0.1108 -0.6131 -0.2927
 2170SOL    MW4 8685   0.031   1.173   3.898  0.0182 -0.4487 -0.2289
 2171SOL     OW 8686   0.253   1.275   3.784 -0.2752 -0.5752 -0.3740
 2171SOL    HW2 8687   0.262   1.365   3.814 -0.8195 -0.7791  0.4110
 2171SOL    HW3 8688   0.251   1.282   3.688 -0.4120  0.2482 -0.3169
 2171SOL    MW4 8689   0.254   1.288   3.775 -0.3651 -0.4935 -0.2625
 2172SOL     OW 8690   0.225   1.555   3.857 -0.1034  0.7735 -0.3721
 2172SOL    HW2 8691   0.218   1.568   3.951 -1.1132 -3.3251  0.2129
 2172SOL    HW3 8692   0.136   1.567   3.824  0.1870  1.8513 -0.8095
 2172SOL    MW4 8693   0.212   1.559   3.865 -0.1983  0.3749 -0.3524
 2173SOL     OW 8694   4.475   1.654   3.757 -0.0817  0.2443  0.0894
 2173SOL    HW2 8695   4.468   1.742   3.794  1.5801  0.8977 -1.0970
 2173SOL    HW3 8696   4.510   1.667   3.669  0.4558 -1.6284  0.0007
 2173SOL    MW4 8697   4.479   1.667   3.750  0.2084  0.0834 -0.0789
 2174SOL     OW 8698   4.474   1.924   3.837  0.5538 -0.5267 -0.4027
 2174SOL    HW2 8699   4.471   1.935   3.932 -2.5569 -2.0652 -0.2525
 2174SOL    HW3 8700   4.417   1.993   3.803 -0.7426 -1.8088 -0.9130
 2174SOL    MW4 8701   4.466   1.935   3.845 -0.0277 -0.8988 -0.4501
 2175SOL     OW 8702   0.245   2.013   3.733 -0.4791  0.3225 -0.3636
 2175SOL    HW2 8703   0.224   2.099   3.767 -2.0022 -0.0803 -0.2505
 2175SOL    HW3 8704   0.170   1.958   3.757 -0.3933 -0.5792 -2.0733
 2175SOL    MW4 8705   0.233   2.017   3.741 -0.6687  0.1504 -0.5741
 2176SOL     OW 8706   0.213   2.258   3.827 -0.1640  0.1641  0.4168
 2176SOL    HW2 8707   0.217   2.264   3.923  0.6089  0.2839  0.3835
 2176SOL    HW3 8708   0.134   2.306   3.803 -0.0506  0.6246  0.9596
 2176SOL    MW4 8709   0.203   2.265   3.837 -0.0471  0.2406  0.4840
 2177SOL     OW 8710   4.487   2.440   3.744 -0.3301  0.0680 -0.5727
 2177SOL    HW2 8711   4.401   2.421   3.781  0.5197 -0.9000  0.9403
 2177SOL    HW3 8712   4.512   2.524   3.783 -0.8047  0.6139 -1.4240
 2177SOL    MW4 8713   4.479   2.449   3.754 -0.2804  0.0122 -0.4854
 2178SOL     OW 8714   0.016   2.677   3.876  0.2815  0.1926 -0.2191
 2178SOL    HW2 8715   0.011   2.688   3.971  0.8253 -0.2968 -0.1359
 2178SOL    HW3 8716   0.092   2.729   3.849  0.6339 -0.3629 -0.2854
 2178SOL    MW4 8717   0.025   2.686   3.885  0.3997  0.0546 -0.2167
 2179SOL     OW 8718   0.231   2.831   3.802 -0.2856  0.4487  0.0758
 2179SOL    HW2 8719   0.300   2.769   3.828  0.0047  0.9185  0.4356
 2179SOL    HW3 8720   0.239   2.836   3.707 -0.9492 -0.8081 -0.0565
 2179SOL    MW4 8721   0.241   2.823   3.793 -0.3348  0.3448  0.1056
 2180SOL     OW 8722   0.267   3.102   3.851  0.4694 -0.0546 -0.1182
 2180SOL    HW2 8723   0.275   3.103   3.947 -0.6698  1.3700 -0.0259
 2180SOL    HW3 8724   0.258   3.010   3.829 -1.3079 -0.2495  1.3261
 2180SOL    MW4 8725   0.267   3.090   3.861  0.0847  0.1075  0.0846
 2181SOL     OW 8726   0.012   3.185   3.804  0.1185 -0.1428  0.2593
 2181SOL    HW2 8727   0.104   3.158   3.811  0.1928  0.0569  0.0759
 2181SOL    HW3 8728  -0.011   3.167   3.713  0.9299  2.7597 -0.5695
 2181SOL    MW4 8729   0.021   3.179   3.793  0.2356  0.2663  0.1254
 2182SOL     OW 8730   4.480   3.446   3.860 -0.5921 -0.3997  0.3541
 2182SOL    HW2 8731   4.553   3.493   3.819  0.0449  0.0473  1.9649
 2182SOL    HW3 8732   4.496   3.354   3.840 -0.3628 -0.1771 -0.5032
 2182SOL    MW4 8733   4.492   3.440   3.852 -0.4778 -0.3116  0.4537
 2183SOL     OW 8734   0.205   3.609   3.772 -0.0419 -0.0552  0.3507
 2183SOL    HW2 8735   0.294   3.576   3.766  0.0361  0.3928 -1.3357
 2183SOL    HW3 8736   0.213   3.694   3.816  0.6166  0.8422 -1.4389
 2183SOL    MW4 8737   0.218   3.616   3.777  0.0553  0.1225 -0.1080
 2184SOL     OW 8738   0.231   3.849   3.899  0.4481  0.4542  0.2910
 2184SOL    HW2 8739   0.243   3.820   3.990 -0.2574  0.4094  0.3734
 2184SOL    HW3 8740   0.304   3.908   3.882  1.9043 -1.3253  0.1489
 2184SOL    MW4 8741   0.242   3.853   3.909  0.5471  0.2134  0.2832
 2185SOL     OW 8742   0.041   4.000   3.779  0.1577  0.0024 -0.1861
 2185SOL    HW2 8743  -0.029   3.964   3.833  0.9270  0.6334  1.2734
 2185SOL    HW3 8744   0.120   3.955   3.808  0.5888  0.3703 -0.7692
 2185SOL    MW4 8745   0.042   3.990   3.790  0.3160  0.1345 -0.0701
 2186SOL     OW 8746   0.007   4.271   3.867 -0.5224 -0.1318  0.2919
 2186SOL    HW2 8747   0.084   4.323   3.843  0.6839 -1.3044  1.5658
 2186SOL    HW3 8748   0.026   4.183   3.834 -1.2712 -0.4562  0.7140
 2186SOL    MW4 8749   0.020   4.266   3.859 -0.4620 -0.3290  0.5157
 2187SOL     OW 8750   0.241   4.406   3.799  0.1789 -0.2911 -0.1231
 2187SOL    HW2 8751   0.310   4.356   3.842  0.8099  0.5197 -0.1828
 2187SOL    HW3 8752   0.254   4.496   3.828 -0.9366 -0.1503 -0.0346
 2187SOL    MW4 8753   0.252   4.411   3.808  0.1150 -0.1655 -0.1194
 2188SOL     OW 8754   0.684   0.013   3.957  0.2201 -0.6166  0.0110
 2188SOL    HW2 8755   0.674  -0.071   3.913 -1.9665 -0.5897  0.4410
 2188SOL    HW3 8756   0.615   0.069   3.921  0.1731  0.2697  1.4161
 2188SOL    MW4 8757   0.674   0.010   3.947 -0.0746 -0.4964  0.2532
 2189SOL     OW 8758   0.496   0.135   3.773  0.1830 -0.1343 -0.1489
 2189SOL    HW2 8759   0.475   0.214   3.824  0.1398 -0.6046  0.5662
 2189SOL    HW3 8760   0.428   0.072   3.797 -0.0807 -0.2234 -1.1162
 2189SOL    MW4 8761   0.484   0.137   3.783  0.1425 -0.2081 -0.1822
 2190SOL     OW 8762   0.478   0.372   3.909  0.4455  0.1888  0.6864
 2190SOL    HW2 8763   0.551   0.428   3.883  0.8688 -0.8928 -0.5002
 2190SOL    HW3 8764   0.399   0.421   3.886  0.8149  0.4580 -0.0011
 2190SOL    MW4 8765   0.477   0.386   3.903  0.5501  0.0816  0.4394
 2191SOL     OW 8766   0.709   0.495   3.791 -0.5072  0.2818 -0.2984
 2191SOL    HW2 8767   0.781   0.444   3.827 -1.2704 -1.5944 -1.3626
 2191SOL    HW3 8768   0.720   0.582   3.830  0.6832 -0.7270  1.7365
 2191SOL    MW4 8769   0.720   0.500   3.801 -0.4508 -0.0989 -0.1702
 2192SOL     OW 8770   0.682   0.745   3.909  0.2309  0.6231  0.2380
 2192SOL    HW2 8771   0.761   0.782   3.870  1.1871  0.0929  1.6198
 2192SOL    HW3 8772   0.611   0.801   3.878  1.1776  1.2806 -0.7854
 2192SOL    MW4 8773   0.683   0.757   3.899  0.4820  0.6399  0.2856
 2193SOL     OW 8774   0.487   0.898   3.806 -0.2057 -0.1474 -0.1650
 2193SOL    HW2 8775   0.493   0.986   3.842 -0.5755 -0.2873  0.2530
 2193SOL    HW3 8776   0.410   0.861   3.849 -1.0793 -0.0685 -1.6333
 2193SOL    MW4 8777   0.477   0.905   3.816 -0.3698 -0.1555 -0.3033
 2194SOL     OW 8778   0.501   1.156   3.879 -0.1436 -0.3685 -0.2549
 2194SOL    HW2 8779   0.569   1.212   3.841  0.6527 -1.3442 -0.3118
 2194SOL    HW3 8780   0.419   1.191   3.847  0.2385  1.7844  1.0548
 2194SOL    MW4 8781   0.499   1.168   3.870  0.0120 -0.2131 -0.0899
 2195SOL     OW 8782   0.687   1.321   3.756  0.2194  0.6137 -0.0709
 2195SOL    HW2 8783   0.767   1.278   3.785  0.8078  1.9207  0.2450
 2195SOL    HW3 8784   0.676   1.292   3.665  0.8490  0.1513 -0.0031
 2195SOL    MW4 8785   0.696   1.311   3.748  0.3801  0.7252 -0.0203
 2196SOL     OW 8786   0.667   1.570   3.882  0.1544  0.2211  0.2055
 2196SOL    HW2 8787   0.740   1.623   3.850  0.4795  0.4113  1.2366
 2196SOL    HW3 8788   0.671   1.490   3.831  0.7976  0.4258 -0.0663
 2196SOL    MW4 8789   0.677   1.567   3.871  0.2822  0.2731  0.3057
 2197SOL     OW 8790   0.444   1.654   3.706 -0.3642 -0.3071  0.2293
 2197SOL    HW2 8791   0.523   1.617   3.746 -0.1808  0.2912  0.4357
 2197SOL    HW3 8792   0.372   1.618   3.756 -0.2159 -0.7515  0.1285
 2197SOL    MW4 8793   0.445   1.645   3.718 -0.3204 -0.2867  0.2434
 2198SOL     OW 8794   0.441   1.890   3.874  0.1890  0.1647 -0.0031
 2198SOL    HW2 8795   0.441   1.808   3.826  1.5986  0.0259  0.2086
 2198SOL    HW3 8796   0.358   1.932   3.851 -0.9754 -1.7200  0.6061
 2198SOL    MW4 8797   0.430   1.885   3.865  0.2213 -0.1024  0.1051
 2199SOL     OW 8798   0.624   2.031   3.730  0.2698 -0.2245  0.0582
 2199SOL    HW2 8799   0.616   2.116   3.774  1.1929 -1.2264  2.1788
 2199SOL    HW3 8800   0.546   1.983   3.757  0.4033 -0.5424 -0.1247
 2199SOL    MW4 8801   0.612   2.036   3.739  0.4092 -0.3986  0.3140
 2200SOL     OW 8802   0.658   2.268   3.865 -0.4679 -0.2153  0.4342
 2200SOL    HW2 8803   0.732   2.317   3.828  0.7400 -1.2244  1.4636
 2200SOL    HW3 8804   0.581   2.306   3.823  0.6011  1.1365 -0.3574
 2200SOL    MW4 8805   0.658   2.280   3.854 -0.1675 -0.1702  0.4654
 2201SOL     OW 8806   0.446   2.390   3.743 -0.4326 -0.0602  0.2370
 2201SOL    HW2 8807   0.368   2.334   3.752  0.0533 -0.9845 -1.1546
 2201SOL    HW3 8808   0.448   2.413   3.650  0.3377  0.8962  0.4825
 2201SOL    MW4 8809   0.436   2.386   3.732 -0.2668 -0.0563  0.0861
 2202SOL     OW 8810   0.458   2.647   3.879  0.0236  0.3389 -0.1322
 2202SOL    HW2 8811   0.520   2.689   3.819 -1.0231  1.0306 -0.7426
 2202SOL    HW3 8812   0.445   2.560   3.842 -0.7146  0.8064 -1.0018
 2202SOL    MW4 8813   0.464   2.641   3.866 -0.2119  0.4916 -0.3273
 2203SOL     OW 8814   0.688   2.822   3.777  0.1180 -0.8530  0.1306
 2203SOL    HW2 8815   0.767   2.778   3.807  0.7644 -0.3179 -0.7676
 2203SOL    HW3 8816   0.697   2.826   3.682 -0.3381  0.4190  0.1248
 2203SOL    MW4 8817   0.699   2.817   3.769  0.1431 -0.6144  0.0110
 2204SOL     OW 8818   0.684   3.082   3.859 -0.3926 -0.6735  0.0442
 2204SOL    HW2 8819   0.681   3.075   3.954  0.1513 -2.0538 -0.0223
 2204SOL    HW3 8820   0.692   2.992   3.829  1.7378 -0.0905 -1.2174
 2204SOL    MW4 8821   0.685   3.069   3.868 -0.0398 -0.7787 -0.1311
 2205SOL     OW 8822   0.470   3.230   3.731  0.0887 -0.1144  0.6243
 2205SOL    HW2 8823   0.549   3.196   3.773  0.8969  1.1124  0.1257
 2205SOL    HW3 8824   0.399   3.183   3.773  1.1752 -2.4204 -0.0646
 2205SOL    MW4 8825   0.471   3.220   3.742  0.3387 -0.2570  0.4673
 2206SOL     OW 8826   0.461   3.498   3.826  0.3948  0.3890 -0.3004
 2206SOL    HW2 8827   0.543   3.543   3.803  1.3254 -0.4257  1.3677
 2206SOL    HW3 8828   0.470   3.411   3.788  1.1121 -0.3177  1.4502
 2206SOL    MW4 8829   0.473   3.493   3.818  0.6122  0.1886  0.1507
 2207SOL     OW 8830   0.714   3.602   3.766 -0.1551  0.0263  0.2197
 2207SOL    HW2 8831   0.708   3.696   3.777  1.3703  0.2214 -0.3665
 2207SOL    HW3 8832   0.718   3.589   3.671  1.1002 -0.4985  0.3282
 2207SOL    MW4 8833   0.714   3.612   3.755  0.2118 -0.0172  0.1566
 2208SOL     OW 8834   0.709   3.868   3.834  0.0143 -0.2231  0.1095
 2208SOL    HW2 8835   0.720   3.863   3.929 -0.9054 -2.1262  0.1303
 2208SOL    HW3 8836   0.779   3.926   3.805  0.2696  0.4195  1.9588
 2208SOL    MW4 8837   0.720   3.875   3.843 -0.0733 -0.3898  0.3564
 2209SOL     OW 8838   0.452   4.000   3.787 -0.2096  0.0533  0.2215
 2209SOL    HW2 8839   0.536   3.968   3.820 -0.2977  0.1740  0.5674
 2209SOL    HW3 8840   0.458   3.991   3.692  0.3697  0.4749  0.2122
 2209SOL    MW4 8841   0.464   3.995   3.779 -0.1448  0.1249  0.2661
 2210SOL     OW 8842   0.442   4.260   3.916 -0.6666  0.4824  0.2697
 2210SOL    HW2 8843   0.514   4.320   3.901 -1.3705  1.0534 -0.9022
 2210SOL    HW3 8844   0.463   4.183   3.862 -1.1443  0.8273 -0.4121
 2210SOL    MW4 8845   0.454   4.258   3.907 -0.8225  0.6037  0.0253
 2211SOL     OW 8846   0.658   4.435   3.821 -0.4412 -0.2372 -0.2433
 2211SOL    HW2 8847   0.743   4.398   3.844  0.1634  0.5642 -1.1323
 2211SOL    HW3 8848   0.646   4.412   3.729 -0.1256  1.6289 -0.7673
 2211SOL    MW4 8849   0.667   4.427   3.812 -0.3198  0.1144 -0.4296
 2212SOL     OW 8850   1.136   0.024   3.865  0.9341  0.4229 -0.1385
 2212SOL    HW2 8851   1.217   0.064   3.833  1.0701  0.8900  0.7895
 2212SOL    HW3 8852   1.148  -0.070   3.849  1.2710  0.5800 -0.8494
 2212SOL    MW4 8853   1.149   0.017   3.859  0.9966  0.5052 -0.1101
 2213SOL     OW 8854   0.881   0.095   3.786  0.2935 -0.1023  0.0947
 2213SOL    HW2 8855   0.971   0.079   3.815 -0.5890 -1.7236  2.0268
 2213SOL    HW3 8856   0.826   0.056   3.854 -1.8787  0.0195 -1.5300
 2213SOL    MW4 8857   0.886   0.088   3.799 -0.1096 -0.3001  0.1354
 2214SOL     OW 8858   0.923   0.349   3.888  0.2650  0.4842  0.0296
 2214SOL    HW2 8859   0.928   0.359   3.983 -1.4536 -0.5426  0.2483
 2214SOL    HW3 8860   0.894   0.259   3.875 -1.5873  1.2563 -1.4103
 2214SOL    MW4 8861   0.920   0.339   3.899 -0.2061  0.4506 -0.1314
 2215SOL     OW 8862   1.144   0.499   3.779 -0.2909  0.0798 -0.3205
 2215SOL    HW2 8863   1.223   0.458   3.814 -0.0930 -1.2350 -2.1779
 2215SOL    HW3 8864   1.073   0.442   3.808 -0.2640 -0.2143 -0.8067
 2215SOL    MW4 8865   1.145   0.486   3.787 -0.2613 -0.1325 -0.6297
 2216SOL     OW 8866   1.127   0.771   3.871  0.1194  0.3793  0.0044
 2216SOL    HW2 8867   1.125   0.765   3.966  0.3926  0.6599  0.0270
 2216SOL    HW3 8868   1.126   0.679   3.842  2.2441  0.2223  0.3269
 2216SOL    MW4 8869   1.127   0.758   3.879  0.4358  0.3955  0.0501
 2217SOL     OW 8870   0.900   0.891   3.811  0.2548  0.5239 -0.3012
 2217SOL    HW2 8871   0.983   0.847   3.828 -0.7545 -1.3219 -0.0128
 2217SOL    HW3 8872   0.883   0.876   3.718 -0.0651  0.3646 -0.2177
 2217SOL    MW4 8873   0.909   0.883   3.801  0.0795  0.2593 -0.2520
 2218SOL     OW 8874   0.920   1.156   3.861 -0.4088 -0.3572 -1.0386
 2218SOL    HW2 8875   0.915   1.161   3.956  0.7076 -0.4043 -0.9814
 2218SOL    HW3 8876   0.907   1.063   3.841  2.0302 -0.7681 -0.7725
 2218SOL    MW4 8877   0.917   1.144   3.871  0.0603 -0.4176 -0.9961
 2219SOL     OW 8878   1.152   1.307   3.789 -0.0476 -0.6124  0.6439
 2219SOL    HW2 8879   1.152   1.388   3.840 -2.2570  0.4027 -0.8564
 2219SOL    HW3 8880   1.080   1.256   3.827 -2.3488  0.5598 -1.9668
 2219SOL    MW4 8881   1.142   1.311   3.801 -0.6427 -0.3238  0.1013
 2220SOL     OW 8882   1.145   1.582   3.906 -0.3490  0.6526 -0.2742
 2220SOL    HW2 8883   1.168   1.579   3.999 -0.2930  0.0531 -0.3048
 2220SOL    HW3 8884   1.225   1.610   3.862  0.1715 -0.8576 -0.3227
 2220SOL    MW4 8885   1.158   1.585   3.913 -0.2730  0.3743 -0.2847
 2221SOL     OW 8886   0.899   1.690   3.799  0.2350 -0.5811  0.8652
 2221SOL    HW2 8887   0.981   1.670   3.844  1.2246  0.6229 -0.3818
 2221SOL    HW3 8888   0.923   1.702   3.708 -1.3416 -0.2573  0.4699
 2221SOL    MW4 8889   0.913   1.689   3.793  0.1576 -0.3794  0.6485
 2222SOL     OW 8890   0.859   1.959   3.869 -0.3849  0.4940  0.1617
 2222SOL    HW2 8891   0.863   1.864   3.858  0.7883  0.7300 -1.7130
 2222SOL    HW3 8892   0.779   1.984   3.822 -0.0485  0.5725 -0.3630
 2222SOL    MW4 8893   0.849   1.950   3.861 -0.1857  0.5355 -0.1547
 2223SOL     OW 8894   1.104   2.052   3.753  0.0136 -0.0956 -0.2300
 2223SOL    HW2 8895   1.051   1.990   3.803 -0.2605  0.8480  0.6754
 2223SOL    HW3 8896   1.083   2.034   3.662 -1.6214  0.0295  0.1030
 2223SOL    MW4 8897   1.094   2.042   3.748 -0.2383  0.0455 -0.0665
 2224SOL     OW 8898   1.116   2.312   3.861 -0.0036 -0.1104 -0.0982
 2224SOL    HW2 8899   1.113   2.312   3.956  1.8512 -0.0886 -0.0271
 2224SOL    HW3 8900   1.113   2.220   3.837  1.3066 -0.1999  0.0578
 2224SOL    MW4 8901   1.115   2.300   3.870  0.4139 -0.1190 -0.0684
 2225SOL     OW 8902   0.869   2.429   3.765 -0.2299 -0.0457  0.1752
 2225SOL    HW2 8903   0.897   2.519   3.786  0.0748 -0.3596  1.1394
 2225SOL    HW3 8904   0.948   2.377   3.777  0.6102  0.0832 -4.1116
 2225SOL    MW4 8905   0.883   2.434   3.770 -0.0789 -0.0701 -0.2630
 2226SOL     OW 8906   0.933   2.693   3.824  0.3536  0.2708 -0.0441
 2226SOL    HW2 8907   0.937   2.679   3.919  0.5033  0.0137 -0.0869
 2226SOL    HW3 8908   1.014   2.740   3.804 -0.2600  1.4173  0.1332
 2226SOL    MW4 8909   0.945   2.698   3.834  0.2925  0.3881 -0.0262
 2227SOL     OW 8910   1.157   2.854   3.755  0.5737  0.1314 -0.6926
 2227SOL    HW2 8911   1.224   2.802   3.798 -0.0801 -0.0103  0.1682
 2227SOL    HW3 8912   1.158   2.938   3.801 -0.2838 -0.0982 -0.2577
 2227SOL    MW4 8913   1.166   2.858   3.766  0.3743  0.0825 -0.5217
 2228SOL     OW 8914   1.161   3.088   3.892 -0.1109 -0.0442  0.1129
 2228SOL    HW2 8915   1.228   3.134   3.841 -0.7384  1.7118  0.8153
 2228SOL    HW3 8916   1.078   3.121   3.857 -0.6206 -1.8141 -0.4067
 2228SOL    MW4 8917   1.159   3.099   3.880 -0.2609 -0.0458  0.1369
 2229SOL     OW 8918   0.922   3.181   3.798  0.2532 -0.6343 -0.1012
 2229SOL    HW2 8919   0.840   3.133   3.816 -0.2752  0.3015 -0.0059
 2229SOL    HW3 8920   0.908   3.221   3.712  0.9899 -1.2698 -0.5229
 2229SOL    MW4 8921   0.909   3.180   3.789  0.2807 -0.5944 -0.1442
 2230SOL     OW 8922   0.895   3.451   3.908 -0.3452  0.2372  0.0272
 2230SOL    HW2 8923   0.893   3.359   3.882 -1.5062  0.1141  0.5586
 2230SOL    HW3 8924   0.834   3.495   3.849 -2.0413  0.1663  1.6911
 2230SOL    MW4 8925   0.887   3.445   3.897 -0.7221  0.2115  0.3169
 2231SOL     OW 8926   1.122   3.580   3.759  0.1350 -0.6477  0.1505
 2231SOL    HW2 8927   1.135   3.667   3.798 -0.8471 -0.6484  0.4740
 2231SOL    HW3 8928   1.051   3.541   3.810  0.3963 -1.5421 -0.1656
 2231SOL    MW4 8929   1.115   3.586   3.771  0.0398 -0.7658  0.1512
 2232SOL     OW 8930   1.141   3.834   3.874  0.3025  0.1994 -0.4739
 2232SOL    HW2 8931   1.146   3.845   3.969  0.3686 -0.5261 -0.3904
 2232SOL    HW3 8932   1.210   3.891   3.840 -0.3382  1.1856 -0.1444
 2232SOL    MW4 8933   1.151   3.843   3.882  0.2267  0.2339 -0.4194
 2233SOL     OW 8934   0.932   4.025   3.794  0.1801 -0.6527 -0.0326
 2233SOL    HW2 8935   1.008   3.974   3.822  0.0810 -0.4657  0.5863
 2233SOL    HW3 8936   0.932   4.017   3.699 -0.0329 -2.0945  0.0816
 2233SOL    MW4 8937   0.942   4.017   3.786  0.1390 -0.8178  0.0641
 2234SOL     OW 8938   0.902   4.312   3.866 -0.6395  0.2717  0.3890
 2234SOL    HW2 8939   0.904   4.310   3.962 -0.7737  0.6229  0.4020
 2234SOL    HW3 8940   0.904   4.220   3.839 -0.0545  0.1869  0.7163
 2234SOL    MW4 8941   0.902   4.300   3.875 -0.5800  0.3076  0.4339
 2235SOL     OW 8942   1.156   4.422   3.817 -0.2984  0.2480  0.0419
 2235SOL    HW2 8943   1.081   4.368   3.842 -0.2148  0.1670  0.1163
 2235SOL    HW3 8944   1.144   4.436   3.723 -1.2116  1.4795  0.3332
 2235SOL    MW4 8945   1.145   4.417   3.808 -0.4081  0.3996  0.0901
 2236SOL     OW 8946   1.584   4.650   3.885 -0.0515  0.2511 -0.5805
 2236SOL    HW2 8947   1.580   4.655   3.980  0.6403 -0.5708 -0.5083
 2236SOL    HW3 8948   1.582   4.557   3.865 -0.6574  0.4273 -1.3976
 2236SOL    MW4 8949   1.583   4.639   3.895 -0.0402  0.1659 -0.6788
 2237SOL     OW 8950   1.380   0.107   3.730 -0.1499  0.4987  0.2288
 2237SOL    HW2 8951   1.374   0.201   3.749 -1.6687  0.2117  1.2530
 2237SOL    HW3 8952   1.458   0.078   3.778  0.3964  1.2454 -0.1866
 2237SOL    MW4 8953   1.390   0.116   3.739 -0.2781  0.5594  0.3090
 2238SOL     OW 8954   1.378   0.369   3.849 -0.4184  0.3137  0.3014
 2238SOL    HW2 8955   1.384   0.361   3.944  1.0676 -0.6872  0.1349
 2238SOL    HW3 8956   1.452   0.424   3.825 -0.1437 -0.3514 -0.3872
 2238SOL    MW4 8957   1.388   0.375   3.859 -0.1861  0.0939  0.1888
 2239SOL     OW 8958   1.593   0.530   3.798 -0.2894  0.2073  0.4089
 2239SOL    HW2 8959   1.666   0.482   3.837  0.3619  0.9950  0.1732
 2239SOL    HW3 8960   1.602   0.619   3.832 -0.9368  0.3932  0.1017
 2239SOL    MW4 8961   1.604   0.536   3.807 -0.2888  0.3359  0.3374
 2240SOL     OW 8962   1.593   0.795   3.903 -0.1993 -0.3379  0.1663
 2240SOL    HW2 8963   1.661   0.839   3.851 -0.5580  0.8563  0.6751
 2240SOL    HW3 8964   1.511   0.822   3.861 -0.4205 -0.5638  0.4562
 2240SOL    MW4 8965   1.591   0.805   3.891 -0.2757 -0.2102  0.2713
 2241SOL     OW 8966   1.362   0.910   3.787 -0.2941  0.1027 -0.4658
 2241SOL    HW2 8967   1.386   0.984   3.842  0.2092 -0.9129  0.7086
 2241SOL    HW3 8968   1.280   0.878   3.823  0.1445 -0.6949 -0.1477
 2241SOL    MW4 8969   1.355   0.915   3.799 -0.1699 -0.1366 -0.2689
 2242SOL     OW 8970   1.369   1.169   3.914  0.2198 -0.0249 -0.1165
 2242SOL    HW2 8971   1.448   1.214   3.883  0.6844 -0.7189  0.0408
 2242SOL    HW3 8972   1.297   1.212   3.868  0.9754 -1.6576 -2.9328
 2242SOL    MW4 8973   1.370   1.180   3.904  0.3809 -0.3319 -0.4673
 2243SOL     OW 8974   1.626   1.256   3.781 -0.5723  0.4141 -0.1484
 2243SOL    HW2 8975   1.710   1.233   3.821 -0.9546 -0.7449  0.0145
 2243SOL    HW3 8976   1.622   1.352   3.786  0.8331  0.4978 -0.3657
 2243SOL    MW4 8977   1.636   1.266   3.787 -0.4374  0.2723 -0.1554
 2244SOL     OW 8978   1.604   1.544   3.824 -0.4253 -0.2111  0.2440
 2244SOL    HW2 8979   1.601   1.549   3.919 -1.0677  3.3890  0.1208
 2244SOL    HW3 8980   1.686   1.586   3.800 -0.4403 -0.7530 -0.8032
 2244SOL    MW4 8981   1.614   1.550   3.833 -0.5120  0.1923  0.0892
 2245SOL     OW 8982   1.343   1.643   3.722 -0.0736 -0.0082 -0.1370
 2245SOL    HW2 8983   1.336   1.736   3.742  1.5551  0.4213 -1.4505
 2245SOL    HW3 8984   1.426   1.616   3.762  0.5391 -0.3766 -1.6302
 2245SOL    MW4 8985   1.353   1.652   3.730  0.2220 -0.0002 -0.5074
 2246SOL     OW 8986   1.322   1.895   3.809  0.4081 -0.0262  0.3215
 2246SOL    HW2 8987   1.345   1.918   3.900  0.5371 -0.5419  0.4200
 2246SOL    HW3 8988   1.248   1.952   3.788  0.7073  0.4640  0.5738
 2246SOL    MW4 8989   1.315   1.906   3.818  0.4647 -0.0296  0.3676
 2247SOL     OW 8990   1.600   2.047   3.756  0.1802 -0.3939 -0.2566
 2247SOL    HW2 8991   1.516   2.002   3.765  0.2110 -0.1949  1.1774
 2247SOL    HW3 8992   1.605   2.070   3.663 -1.4282 -0.2555 -0.3228
 2247SOL    MW4 8993   1.589   2.044   3.745 -0.0279 -0.3495 -0.0761
 2248SOL     OW 8994   1.570   2.301   3.863  0.4912  0.2869  0.0719
 2248SOL    HW2 8995   1.651   2.349   3.842 -0.4429  0.7870 -2.5570
 2248SOL    HW3 8996   1.583   2.215   3.824 -0.9908  0.9997 -2.0901
 2248SOL    MW4 8997   1.583   2.296   3.855  0.1725  0.4468 -0.5605
 2249SOL     OW 8998   1.366   2.456   3.766 -0.1222  0.0422 -0.3022
 2249SOL    HW2 8999   1.436   2.404   3.804  1.3676  0.3602 -2.5105
 2249SOL    HW3 9000   1.285   2.415   3.798  1.0479 -1.7444  0.4288
 2249SOL    MW4 9001   1.364   2.444   3.775  0.2288 -0.1512 -0.4973
 2250SOL     OW 9002   1.366   2.714   3.865  0.7196 -0.4361  0.3464
 2250SOL    HW2 9003   1.352   2.716   3.960 -1.4588  1.8937  0.0441
 2250SOL    HW3 9004   1.364   2.622   3.842 -0.7946 -0.9406  2.3244
 2250SOL    MW4 9005   1.364   2.702   3.875  0.2325 -0.1955  0.5677
 2251SOL     OW 9006   1.587   2.851   3.755 -0.3094  0.1473  0.1030
 2251SOL    HW2 9007   1.512   2.801   3.786  0.5405 -1.0038  0.3258
 2251SOL    HW3 9008   1.581   2.847   3.659 -0.0304 -0.6927  0.1240
 2251SOL    MW4 9009   1.576   2.844   3.746 -0.1605 -0.1154  0.1352
 2252SOL     OW 9010   1.579   3.115   3.855 -0.3519  0.0475 -0.5653
 2252SOL    HW2 9011   1.590   3.103   3.950 -1.1577  1.0779 -0.3228
 2252SOL    HW3 9012   1.594   3.028   3.818 -0.2898 -0.4255  0.5375
 2252SOL    MW4 9013   1.582   3.102   3.863 -0.4500  0.1209 -0.3879
 2253SOL     OW 9014   1.359   3.212   3.757  0.2309  0.1534 -0.5071
 2253SOL    HW2 9015   1.368   3.305   3.781 -0.7679  0.1630 -0.1607
 2253SOL    HW3 9016   1.437   3.171   3.793 -0.8444  0.3155  2.0793
 2253SOL    MW4 9017   1.371   3.219   3.765 -0.0428  0.1762 -0.1202
 2254SOL     OW 9018   1.346   3.463   3.853  0.3908  0.0404  0.4303
 2254SOL    HW2 9019   1.421   3.516   3.827  0.2670  1.0338  2.0574
 2254SOL    HW3 9020   1.272   3.504   3.807  0.5602  0.1801  0.2779
 2254SOL    MW4 9021   1.346   3.475   3.843  0.3970  0.1900  0.6247
 2255SOL     OW 9022   1.594   3.587   3.784  0.3222  0.2229 -0.5349
 2255SOL    HW2 9023   1.681   3.562   3.813  0.6323  0.3110 -1.3883
 2255SOL    HW3 9024   1.579   3.674   3.822  0.5254  0.1235 -0.2319
 2255SOL    MW4 9025   1.603   3.595   3.792  0.3899  0.2213 -0.6075
 2256SOL     OW 9026   1.570   3.866   3.844 -0.1690 -0.0465  0.1993
 2256SOL    HW2 9027   1.579   3.880   3.938 -0.1705  0.2576  0.1561
 2256SOL    HW3 9028   1.492   3.916   3.820 -1.2431 -1.6174  0.3464
 2256SOL    MW4 9029   1.561   3.874   3.853 -0.3109 -0.2136  0.2129
 2257SOL     OW 9030   1.330   4.009   3.775  0.1171  0.1124  0.5358
 2257SOL    HW2 9031   1.352   4.097   3.807  0.8958 -0.1429  0.7070
 2257SOL    HW3 9032   1.304   4.023   3.684 -1.0562  0.6970  0.9595
 2257SOL    MW4 9033   1.330   4.023   3.767  0.0651  0.1554  0.6144
 2258SOL     OW 9034   1.364   4.263   3.892  0.4216 -0.1943  0.2746
 2258SOL    HW2 9035   1.448   4.305   3.872 -0.2355  1.4024  0.8543
 2258SOL    HW3 9036   1.298   4.325   3.863 -0.5862 -1.4366 -0.1458
 2258SOL    MW4 9037   1.366   4.277   3.885  0.2018 -0.1478  0.2959
 2259SOL     OW 9038   1.609   4.378   3.828 -0.1299  0.1207  0.0043
 2259SOL    HW2 9039   1.677   4.321   3.865 -1.0162 -0.2496  1.0746
 2259SOL    HW3 9040   1.621   4.371   3.733  0.5682 -0.8566  0.1583
 2259SOL    MW4 9041   1.620   4.370   3.820 -0.1547 -0.0572  0.1662
 2260SOL     OW 9042   2.005   4.650   3.920  0.5409 -0.6665 -0.2170
 2260SOL    HW2 9043   2.081   4.692   3.879  1.0596 -0.5701  0.8310
 2260SOL    HW3 9044   1.990   4.572   3.867  0.3543  0.1760 -1.4183
 2260SOL    MW4 9045   2.013   4.646   3.907  0.5846 -0.5426 -0.2372
 2261SOL     OW 9046   1.793   0.134   3.820  0.1262  0.0584 -0.2018
 2261SOL    HW2 9047   1.862   0.072   3.847 -0.4776 -0.2872  0.5763
 2261SOL    HW3 9048   1.712   0.092   3.847 -0.2602  1.4214  0.7970
 2261SOL    MW4 9049   1.792   0.120   3.827 -0.0044  0.1926  0.0329
 2262SOL     OW 9050   1.812   0.419   3.916  0.1124 -0.4651 -0.4830
 2262SOL    HW2 9051   1.823   0.427   4.011 -2.1874  1.0806 -0.3098
 2262SOL    HW3 9052   1.800   0.325   3.901  0.6511 -0.7357  0.7254
 2262SOL    MW4 9053   1.812   0.408   3.927 -0.1199 -0.2970 -0.3004
 2263SOL     OW 9054   2.044   0.490   3.792  0.6523 -0.6056  0.1578
 2263SOL    HW2 9055   1.959   0.483   3.835  0.3337 -0.5554 -0.4644
 2263SOL    HW3 9056   2.024   0.500   3.699  1.3893 -2.8204 -0.2650
 2263SOL    MW4 9057   2.030   0.491   3.786  0.7074 -0.8911  0.0200
 2264SOL     OW 9058   2.055   0.752   3.870  0.0715  0.2411  0.1932
 2264SOL    HW2 9059   2.027   0.753   3.961  0.2474 -1.0408  0.2752
 2264SOL    HW3 9060   2.080   0.661   3.853  4.0069  1.2402  0.0705
 2264SOL    MW4 9061   2.055   0.740   3.880  0.6142  0.2037  0.1879
 2265SOL     OW 9062   1.823   0.888   3.782  0.2231  0.5155 -0.0247
 2265SOL    HW2 9063   1.909   0.846   3.784  0.0838  0.2510  0.5436
 2265SOL    HW3 9064   1.800   0.891   3.689  0.9965  0.9006 -0.2066
 2265SOL    MW4 9065   1.832   0.883   3.770  0.3066  0.5314  0.0265
 2266SOL     OW 9066   1.845   1.150   3.935 -0.0403  0.4212 -0.1187
 2266SOL    HW2 9067   1.824   1.146   4.028 -1.0477 -0.8835 -0.3833
 2266SOL    HW3 9068   1.838   1.059   3.905 -0.1915  0.8991 -1.5661
 2266SOL    MW4 9069   1.841   1.138   3.943 -0.1932  0.3121 -0.3445
 2267SOL     OW 9070   2.073   1.236   3.769  0.7438 -0.0091  0.1725
 2267SOL    HW2 9071   2.151   1.198   3.810  0.4428 -0.1563  0.6127
 2267SOL    HW3 9072   2.000   1.201   3.820  0.3697 -0.1440 -0.4556
 2267SOL    MW4 9073   2.074   1.227   3.781  0.6549 -0.0464  0.1473
 2268SOL     OW 9074   2.035   1.510   3.882 -0.1953 -0.6046 -0.0092
 2268SOL    HW2 9075   1.964   1.557   3.839  2.1097  0.5583 -2.6878
 2268SOL    HW3 9076   2.043   1.428   3.834  1.2709 -0.0372 -0.7914
 2268SOL    MW4 9077   2.027   1.506   3.870  0.3026 -0.3763 -0.4656
 2269SOL     OW 9078   1.843   1.662   3.758  0.0980  0.0837  0.2964
 2269SOL    HW2 9079   1.861   1.752   3.784  0.3663  0.3839 -0.8783
 2269SOL    HW3 9080   1.852   1.663   3.663 -0.8115 -0.9818  0.1986
 2269SOL    MW4 9081   1.847   1.674   3.749  0.0134 -0.0172  0.1287
 2270SOL     OW 9082   1.833   1.908   3.857 -0.1019  0.3091  0.3136
 2270SOL    HW2 9083   1.833   1.903   3.953 -1.0314  0.1262  0.3092
 2270SOL    HW3 9084   1.745   1.938   3.835 -0.4387 -1.2347 -0.5576
 2270SOL    MW4 9085   1.821   1.911   3.867 -0.2689  0.0812  0.1981
 2271SOL     OW 9086   2.018   2.073   3.765  0.3062 -0.2253 -0.0958
 2271SOL    HW2 9087   1.945   2.016   3.788  0.7539 -0.4243  0.8541
 2271SOL    HW3 9088   2.019   2.073   3.669 -0.7020 -0.5183 -0.1124
 2271SOL    MW4 9089   2.009   2.065   3.755  0.2320 -0.2902  0.0274
 2272SOL     OW 9090   2.013   2.317   3.918 -0.0761  0.6894  0.4200
 2272SOL    HW2 9091   1.944   2.355   3.864  1.5460  1.0307 -1.4870
 2272SOL    HW3 9092   2.034   2.233   3.875  1.1341  0.9010  0.5673
 2272SOL    MW4 9093   2.007   2.311   3.905  0.2975  0.7622  0.1879
 2273SOL     OW 9094   1.810   2.436   3.753 -0.2726 -0.4850 -0.0488
 2273SOL    HW2 9095   1.834   2.526   3.775 -0.2709 -0.7993  1.3267
 2273SOL    HW3 9096   1.805   2.434   3.658 -0.3034  0.9793 -0.0843
 2273SOL    MW4 9097   1.813   2.448   3.744 -0.2764 -0.3331  0.1283
 2274SOL     OW 9098   1.826   2.696   3.864 -0.2527  0.0917  0.0415
 2274SOL    HW2 9099   1.836   2.705   3.959 -0.0502 -0.6530  0.0992
 2274SOL    HW3 9100   1.745   2.742   3.843 -0.1281  0.5337  0.5290
 2274SOL    MW4 9101   1.817   2.703   3.874 -0.2095  0.0515  0.1135
 2275SOL     OW 9102   2.023   2.829   3.706 -0.2322 -0.3249  0.3644
 2275SOL    HW2 9103   2.104   2.804   3.751 -0.0022 -0.3870 -0.0853
 2275SOL    HW3 9104   1.954   2.784   3.755  0.0324 -0.5272  0.5551
 2275SOL    MW4 9105   2.024   2.820   3.718 -0.1669 -0.3598  0.3300
 2276SOL     OW 9106   1.989   3.079   3.814 -0.1310 -0.1019 -0.4166
 2276SOL    HW2 9107   2.076   3.118   3.801  0.2549 -0.6871  0.3778
 2276SOL    HW3 9108   1.993   2.995   3.769 -0.0656 -0.4238  0.1876
 2276SOL    MW4 9109   2.001   3.073   3.806 -0.0715 -0.2217 -0.2325
 2277SOL     OW 9110   1.800   3.243   3.737  0.4609  0.0991  0.2720
 2277SOL    HW2 9111   1.883   3.198   3.748  1.2668  1.7276  1.0225
 2277SOL    HW3 9112   1.738   3.195   3.791  1.1803 -0.4365  0.6145
 2277SOL    MW4 9113   1.803   3.231   3.745  0.6621  0.2432  0.4163
 2278SOL     OW 9114   1.838   3.485   3.863  0.1867  0.1693  0.0472
 2278SOL    HW2 9115   1.906   3.538   3.820 -0.8545  1.0323 -0.5837
 2278SOL    HW3 9116   1.840   3.401   3.816  0.3938  0.4155 -0.3929
 2278SOL    MW4 9117   1.847   3.481   3.851  0.0768  0.3154 -0.0939
 2279SOL     OW 9118   2.039   3.664   3.768  0.0462 -0.0523  0.0132
 2279SOL    HW2 9119   2.123   3.623   3.787  0.2094  0.3363  0.1412
 2279SOL    HW3 9120   2.034   3.665   3.672 -0.4431 -1.3366  0.0208
 2279SOL    MW4 9121   2.049   3.659   3.758  0.0031 -0.1702  0.0310
 2280SOL     OW 9122   2.036   3.894   3.925  0.2752 -0.6161  0.1711
 2280SOL    HW2 9123   2.112   3.931   3.879  1.2247 -1.7132  0.8139
 2280SOL    HW3 9124   2.021   3.809   3.882 -1.1388 -0.0306 -0.5160
 2280SOL    MW4 9125   2.044   3.888   3.913  0.2139 -0.6838  0.1655
 2281SOL     OW 9126   1.809   3.991   3.780 -0.2246  0.3025 -0.1088
 2281SOL    HW2 9127   1.885   3.951   3.822  0.5331 -2.7548 -4.0519
 2281SOL    HW3 9128   1.738   3.930   3.796 -0.9479  1.2579  0.3611
 2281SOL    MW4 9129   1.810   3.978   3.788 -0.2201  0.0250 -0.5670
 2282SOL     OW 9130   1.812   4.217   3.916  0.4201  0.5288 -0.5178
 2282SOL    HW2 9131   1.874   4.276   3.873  1.4482  0.8345  1.3360
 2282SOL    HW3 9132   1.812   4.138   3.861  1.3229  1.1079 -1.3590
 2282SOL    MW4 9133   1.820   4.214   3.903  0.6748  0.6452 -0.3841
 2283SOL     OW 9134   1.988   4.391   3.809 -0.2801 -0.7561 -0.1822
 2283SOL    HW2 9135   2.068   4.347   3.838 -0.8728 -1.0593  1.0448
 2283SOL    HW3 9136   2.002   4.408   3.716  0.3312 -2.7201 -0.4698
 2283SOL    MW4 9137   2.001   4.387   3.801 -0.2778 -1.0552 -0.0579
 2284SOL     OW 9138   2.459   0.012   3.861 -0.1318 -0.0016 -0.0540
 2284SOL    HW2 9139   2.458   0.021   3.957 -0.1046 -1.0924  0.0497
 2284SOL    HW3 9140   2.529   0.071   3.833  0.6652 -0.5792  0.6948
 2284SOL    MW4 9141   2.468   0.021   3.870 -0.0229 -0.2217  0.0584
 2285SOL     OW 9142   2.215   0.115   3.781  0.0106 -0.3954  0.2481
 2285SOL    HW2 9143   2.297   0.066   3.786  0.2734 -0.1397 -1.3984
 2285SOL    HW3 9144   2.198   0.125   3.688 -2.2898 -1.0689  0.5640
 2285SOL    MW4 9145   2.223   0.110   3.770 -0.2584 -0.4505  0.0725
 2286SOL     OW 9146   2.277   0.376   3.890 -0.0333 -0.0113 -0.0326
 2286SOL    HW2 9147   2.263   0.284   3.868 -0.6040 -0.2897  1.3715
 2286SOL    HW3 9148   2.196   0.419   3.864 -0.4186 -0.2130  0.7856
 2286SOL    MW4 9149   2.265   0.369   3.884 -0.1595 -0.0747  0.2606
 2287SOL     OW 9150   2.470   0.504   3.744 -0.3175 -0.0962  0.0880
 2287SOL    HW2 9151   2.407   0.450   3.792 -0.1458  0.4795  0.9771
 2287SOL    HW3 9152   2.456   0.481   3.652 -0.3099 -1.5786  0.4401
 2287SOL    MW4 9153   2.459   0.494   3.739 -0.2940 -0.2158  0.2518
 2288SOL     OW 9154   2.504   0.776   3.851 -0.0475  0.0473 -0.4418
 2288SOL    HW2 9155   2.424   0.822   3.826 -1.0577 -0.6745  1.3810
 2288SOL    HW3 9156   2.491   0.686   3.823 -0.1357 -0.2082  0.4146
 2288SOL    MW4 9157   2.492   0.770   3.844 -0.1926 -0.0816 -0.0885
 2289SOL     OW 9158   2.278   0.897   3.744 -0.5757  0.4528  0.5681
 2289SOL    HW2 9159   2.198   0.859   3.780 -0.6411  0.1390  0.1050
 2289SOL    HW3 9160   2.269   0.886   3.649  0.4552 -0.4878  0.5667
 2289SOL    MW4 9161   2.266   0.890   3.736 -0.4485  0.2872  0.5069
 2290SOL     OW 9162   2.314   1.137   3.849 -0.3420 -0.1814 -0.3832
 2290SOL    HW2 9163   2.288   1.141   3.941  0.0558 -0.6904 -0.2461
 2290SOL    HW3 9164   2.293   1.048   3.822  0.5932 -0.3872 -0.4606
 2290SOL    MW4 9165   2.308   1.126   3.858 -0.1664 -0.2759 -0.3755
 2291SOL     OW 9166   2.521   1.274   3.730 -0.0172  0.0386 -0.0514
 2291SOL    HW2 9167   2.498   1.360   3.764  0.7093  0.1412  0.1664
 2291SOL    HW3 9168   2.445   1.219   3.752 -0.9894  0.8810 -1.1975
 2291SOL    MW4 9169   2.508   1.278   3.737 -0.0496  0.1633 -0.1740
 2292SOL     OW 9170   2.472   1.510   3.856 -0.4483 -0.2699  0.3547
 2292SOL    HW2 9171   2.548   1.561   3.828  0.2048  0.3366  3.0885
 2292SOL    HW3 9172   2.397   1.562   3.827  0.2016  0.4989  0.0239
 2292SOL    MW4 9173   2.472   1.524   3.849 -0.2763 -0.0886  0.6719
 2293SOL     OW 9174   2.240   1.647   3.746 -0.1574  0.1121 -0.6628
 2293SOL    HW2 9175   2.221   1.737   3.773  0.8799  0.4369 -1.0112
 2293SOL    HW3 9176   2.176   1.594   3.794  1.7593  0.6613  2.6488
 2293SOL    MW4 9177   2.229   1.651   3.756  0.2327  0.2273 -0.2720
 2294SOL     OW 9178   2.242   1.919   3.841 -0.4101  0.1299  0.2866
 2294SOL    HW2 9179   2.256   1.909   3.935 -0.1359  0.5855  0.2920
 2294SOL    HW3 9180   2.154   1.955   3.834 -0.1136  0.8791  0.4019
 2294SOL    MW4 9181   2.232   1.922   3.852 -0.3347  0.2887  0.3026
 2295SOL     OW 9182   2.470   2.057   3.780  0.1572  0.4310  0.0880
 2295SOL    HW2 9183   2.444   2.141   3.816 -0.6840 -0.2803  1.1968
 2295SOL    HW3 9184   2.396   1.999   3.801  1.3636 -0.9296  0.6524
 2295SOL    MW4 9185   2.457   2.060   3.787  0.2053  0.1576  0.3088
 2296SOL     OW 9186   2.456   2.312   3.878 -0.2621 -0.4277 -0.1528
 2296SOL    HW2 9187   2.528   2.351   3.828  1.6092 -2.2319  1.0688
 2296SOL    HW3 9188   2.378   2.356   3.845  1.4494  2.0838 -1.0184
 2296SOL    MW4 9189   2.455   2.323   3.867  0.2110 -0.3345 -0.1059
 2297SOL     OW 9190   2.238   2.424   3.752 -0.1652  0.1402 -0.1353
 2297SOL    HW2 9191   2.157   2.375   3.764 -0.5059  0.5458 -0.7448
 2297SOL    HW3 9192   2.242   2.441   3.658 -0.4498  1.9622  0.1596
 2297SOL    MW4 9193   2.228   2.420   3.741 -0.2475  0.4342 -0.1769
 2298SOL     OW 9194   2.216   2.712   3.862  0.2916 -0.5901  0.0436
 2298SOL    HW2 9195   2.224   2.723   3.957 -0.5177 -0.9510  0.1587
 2298SOL    HW3 9196   2.224   2.618   3.848  0.0546 -0.5729 -0.2052
 2298SOL    MW4 9197   2.218   2.701   3.873  0.1535 -0.6356  0.0262
 2299SOL     OW 9198   2.463   2.803   3.787 -0.2839 -0.5628  0.7146
 2299SOL    HW2 9199   2.377   2.764   3.801 -0.2438 -0.2320  1.9497
 2299SOL    HW3 9200   2.471   2.812   3.692 -1.4250 -1.0006  0.5784
 2299SOL    MW4 9201   2.453   2.799   3.777 -0.4294 -0.5770  0.8600
 2300SOL     OW 9202   2.481   3.072   3.837  0.0320 -0.5085  0.1204
 2300SOL    HW2 9203   2.498   3.077   3.931  0.1650 -0.6756  0.1050
 2300SOL    HW3 9204   2.449   2.983   3.824 -0.0119 -0.4769  0.0104
 2300SOL    MW4 9205   2.479   3.061   3.848  0.0439 -0.5264  0.1040
 2301SOL     OW 9206   2.220   3.220   3.779 -0.3549  0.2994 -0.1384
 2301SOL    HW2 9207   2.236   3.314   3.778 -0.1957  0.2702 -0.3796
 2301SOL    HW3 9208   2.306   3.182   3.798 -0.2549  0.1668 -0.8467
 2301SOL    MW4 9209   2.234   3.227   3.782 -0.3207  0.2780 -0.2635
 2302SOL     OW 9210   2.284   3.494   3.813  0.1030  0.0734 -0.1351
 2302SOL    HW2 9211   2.296   3.492   3.908 -3.4854  1.1655  0.4123
 2302SOL    HW3 9212   2.363   3.536   3.780  1.3541 -0.2076  2.3497
 2302SOL    MW4 9213   2.296   3.499   3.821 -0.2053  0.1805  0.2649
 2303SOL     OW 9214   2.535   3.651   3.751  0.2856 -0.0178  0.1052
 2303SOL    HW2 9215   2.601   3.585   3.772 -0.0234  0.2664  2.0277
 2303SOL    HW3 9216   2.516   3.636   3.659  1.5194 -1.4590  0.0579
 2303SOL    MW4 9217   2.541   3.640   3.742  0.4075 -0.1705  0.3526
 2304SOL     OW 9218   2.483   3.896   3.855  0.3426 -0.2983  0.4047
 2304SOL    HW2 9219   2.553   3.948   3.817 -0.0627  1.2668  1.6998
 2304SOL    HW3 9220   2.493   3.809   3.817  2.3864  0.1581 -0.1431
 2304SOL    MW4 9221   2.494   3.892   3.845  0.5586 -0.0315  0.5033
 2305SOL     OW 9222   2.243   4.014   3.783 -0.2166 -0.5044  0.2907
 2305SOL    HW2 9223   2.324   3.967   3.800  0.7614  1.1485  0.3187
 2305SOL    HW3 9224   2.240   4.024   3.688 -0.0790 -0.0623  0.3287
 2305SOL    MW4 9225   2.253   4.009   3.773 -0.0694 -0.2279  0.2995
 2306SOL     OW 9226   2.250   4.278   3.860 -0.4656 -0.1142  0.1488
 2306SOL    HW2 9227   2.260   4.260   3.953  1.8121 -0.4780 -0.1286
 2306SOL    HW3 9228   2.245   4.192   3.819  1.1365 -0.0158 -0.2930
 2306SOL    MW4 9229   2.250   4.264   3.867  0.0463 -0.1493  0.0536
 2307SOL     OW 9230   2.490   4.418   3.803  0.0888 -0.1214  0.2767
 2307SOL    HW2 9231   2.407   4.380   3.834  1.2173 -2.1328  0.9442
 2307SOL    HW3 9232   2.484   4.511   3.826 -1.9061 -0.2665  0.4684
 2307SOL    MW4 9233   2.478   4.425   3.810 -0.0255 -0.4058  0.3903
 2308SOL     OW 9234   2.918   4.662   3.877  0.5652 -0.1882 -0.2456
 2308SOL    HW2 9235   2.920   4.679   3.972 -0.6237 -1.0732 -0.0394
 2308SOL    HW3 9236   3.000   4.698   3.844  0.7951  0.5224  1.0618
 2308SOL    MW4 9237   2.929   4.669   3.885  0.4387 -0.2112 -0.0455
 2309SOL     OW 9238   2.701   0.146   3.777 -0.7899  0.3653 -0.4679
 2309SOL    HW2 9239   2.780   0.101   3.809 -1.3132 -0.0120  0.2990
 2309SOL    HW3 9240   2.700   0.127   3.683 -0.8677 -1.0170 -0.1957
 2309SOL    MW4 9241   2.712   0.138   3.769 -0.8693  0.1332 -0.3304
 2310SOL     OW 9242   2.721   0.431   3.820 -0.1245 -0.2631 -0.4536
 2310SOL    HW2 9243   2.718   0.336   3.807 -1.7035 -0.5098  1.5618
 2310SOL    HW3 9244   2.632   0.460   3.802  0.0046  0.6410  0.3502
 2310SOL    MW4 9245   2.709   0.422   3.816 -0.3157 -0.1764 -0.0815
 2311SOL     OW 9246   2.954   0.555   3.728 -0.1499 -0.2286 -0.1936
 2311SOL    HW2 9247   3.013   0.483   3.751 -0.4759 -0.6843 -0.7903
 2311SOL    HW3 9248   2.867   0.523   3.751 -0.3191 -0.1049 -0.6647
 2311SOL    MW4 9249   2.950   0.541   3.734 -0.2153 -0.2724 -0.3345
 2312SOL     OW 9250   2.949   0.809   3.876  0.3816  0.0062 -0.0301
 2312SOL    HW2 9251   3.004   0.866   3.823 -1.1182  0.5859 -1.0138
 2312SOL    HW3 9252   2.955   0.723   3.834  0.6512  0.0284 -0.0378
 2312SOL    MW4 9253   2.957   0.805   3.864  0.2193  0.0856 -0.1612
 2313SOL     OW 9254   2.737   0.915   3.755 -0.3980  0.2960  0.8632
 2313SOL    HW2 9255   2.814   0.880   3.799  0.6842  2.2678  0.5477
 2313SOL    HW3 9256   2.664   0.864   3.791  1.1217 -2.3386  0.3832
 2313SOL    MW4 9257   2.737   0.903   3.765 -0.0546  0.2086  0.7582
 2314SOL     OW 9258   2.707   1.174   3.892 -0.1221 -0.0484  0.4074
 2314SOL    HW2 9259   2.726   1.089   3.853 -0.0401 -0.0976  0.5539
 2314SOL    HW3 9260   2.636   1.210   3.839 -0.2872 -0.2904  0.4625
 2314SOL    MW4 9261   2.700   1.168   3.880 -0.1333 -0.0869  0.4339
 2315SOL     OW 9262   2.919   1.296   3.731 -0.0784 -0.0407 -0.3495
 2315SOL    HW2 9263   2.931   1.378   3.779 -1.2816  0.3365 -0.6664
 2315SOL    HW3 9264   2.840   1.257   3.770 -0.0858 -0.5531 -0.8739
 2315SOL    MW4 9265   2.910   1.302   3.743 -0.2379 -0.0584 -0.4604
 2316SOL     OW 9266   2.943   1.556   3.835 -0.3466 -0.2708  0.3833
 2316SOL    HW2 9267   2.947   1.564   3.930 -1.0833 -0.2449  0.4146
 2316SOL    HW3 9268   3.027   1.590   3.804  0.3826 -1.3785  1.0948
 2316SOL    MW4 9269   2.955   1.561   3.843 -0.3476 -0.4135  0.4814
 2317SOL     OW 9270   2.697   1.678   3.766  0.4834  0.5116 -0.0153
 2317SOL    HW2 9271   2.778   1.633   3.788 -0.0388 -0.2881  0.2679
 2317SOL    HW3 9272   2.706   1.700   3.673  0.9737  0.3212 -0.0132
 2317SOL    MW4 9273   2.709   1.675   3.757  0.4792  0.3810  0.0222
 2318SOL     OW 9274   2.706   1.940   3.847  0.3322  0.3122 -0.1808
 2318SOL    HW2 9275   2.697   1.851   3.812  0.9129  0.4023 -0.5695
 2318SOL    HW3 9276   2.620   1.979   3.837  0.1707 -0.0859 -0.3522
 2318SOL    MW4 9277   2.694   1.933   3.841  0.3877  0.2716 -0.2549
 2319SOL     OW 9278   2.942   2.064   3.742 -0.2161  0.0346  0.2648
 2319SOL    HW2 9279   2.942   2.152   3.781  2.5521 -0.6439  1.9706
 2319SOL    HW3 9280   2.873   2.017   3.788  0.2557  0.4835  1.4535
 2319SOL    MW4 9281   2.933   2.070   3.753  0.2117  0.0043  0.6466
 2320SOL     OW 9282   2.955   2.310   3.848 -0.1062 -0.0766 -0.2031
 2320SOL    HW2 9283   2.963   2.315   3.944 -1.1102 -0.4191 -0.1001
 2320SOL    HW3 9284   3.025   2.368   3.816  0.1940  0.1005  0.7330
 2320SOL    MW4 9285   2.965   2.318   3.857 -0.1988 -0.0987 -0.0660
 2321SOL     OW 9286   2.704   2.412   3.758 -0.8373 -0.0170 -0.3549
 2321SOL    HW2 9287   2.702   2.506   3.775  0.2517  0.6189 -3.4011
 2321SOL    HW3 9288   2.785   2.382   3.798 -0.4457  0.6311 -0.6516
 2321SOL    MW4 9289   2.715   2.421   3.766 -0.6418  0.1526 -0.7958
 2322SOL     OW 9290   2.698   2.687   3.815  0.0487 -0.3190 -0.3325
 2322SOL    HW2 9291   2.705   2.681   3.910 -0.1873 -2.4114 -0.4290
 2322SOL    HW3 9292   2.617   2.736   3.800 -0.2391 -0.5126  0.5395
 2322SOL    MW4 9293   2.688   2.692   3.826 -0.0205 -0.6206 -0.2303
 2323SOL     OW 9294   2.945   2.869   3.760  0.2273  0.2039  0.4957
 2323SOL    HW2 9295   2.948   2.958   3.795  1.1027  0.3592  0.0387
 2323SOL    HW3 9296   2.855   2.839   3.777  0.4372  0.5239  2.2440
 2323SOL    MW4 9297   2.933   2.877   3.767  0.3705  0.2666  0.6664
 2324SOL     OW 9298   2.949   3.105   3.869 -0.0751 -0.1714  0.1271
 2324SOL    HW2 9299   3.023   3.158   3.840 -0.9057 -0.3138 -2.3793
 2324SOL    HW3 9300   2.872   3.147   3.830 -0.9146 -2.1345 -0.4157
 2324SOL    MW4 9301   2.949   3.117   3.860 -0.2952 -0.4492 -0.2754
 2325SOL     OW 9302   2.708   3.199   3.751 -0.2678 -0.0690 -0.3749
 2325SOL    HW2 9303   2.700   3.284   3.794  1.9903 -0.7051  1.4155
 2325SOL    HW3 9304   2.641   3.145   3.793  1.3692 -0.4475  1.8649
 2325SOL    MW4 9305   2.698   3.203   3.762  0.2460 -0.2027  0.1566
 2326SOL     OW 9306   2.702   3.463   3.846  0.0490 -0.6251  0.2634
 2326SOL    HW2 9307   2.687   3.472   3.940 -2.1073  1.6026 -0.2698
 2326SOL    HW3 9308   2.776   3.521   3.828  0.6720 -1.2926  0.5886
 2326SOL    MW4 9309   2.710   3.472   3.856 -0.1535 -0.4191  0.2360
 2327SOL     OW 9310   2.911   3.634   3.784  0.0161 -0.2063  0.3279
 2327SOL    HW2 9311   2.988   3.593   3.823  0.3254 -0.2731 -0.3474
 2327SOL    HW3 9312   2.928   3.634   3.689 -0.5328  0.3431  0.2188
 2327SOL    MW4 9313   2.923   3.629   3.776 -0.0153 -0.1426  0.2244
 2328SOL     OW 9314   2.937   3.899   3.843  0.6937 -0.1084 -0.2766
 2328SOL    HW2 9315   2.941   3.891   3.938 -2.8866  2.6948  0.1965
 2328SOL    HW3 9316   2.929   3.808   3.812 -1.1164 -0.8770  2.2951
 2328SOL    MW4 9317   2.937   3.886   3.852 -0.0174  0.1602  0.1249
 2329SOL     OW 9318   2.709   4.008   3.766 -0.3952 -0.1639  0.6373
 2329SOL    HW2 9319   2.709   4.087   3.820  0.6821 -0.3614  0.9381
 2329SOL    HW3 9320   2.790   3.963   3.789  0.5488  0.1972 -1.7719
 2329SOL    MW4 9321   2.719   4.013   3.776 -0.1285 -0.1421  0.3591
 2330SOL     OW 9322   2.715   4.278   3.902  0.0851  0.1432  0.3891
 2330SOL    HW2 9323   2.792   4.329   3.877  0.8869 -0.2606  1.9583
 2330SOL    HW3 9324   2.641   4.334   3.880  0.9125  1.5018  0.9780
 2330SOL    MW4 9325   2.716   4.292   3.896  0.3002  0.2694  0.6735
 2331SOL     OW 9326   2.931   4.421   3.756  0.2390 -0.0602  0.4552
 2331SOL    HW2 9327   3.004   4.381   3.804  0.5307 -0.6141 -0.4320
 2331SOL    HW3 9328   2.921   4.507   3.795  1.9435  0.3586  0.0145
 2331SOL    MW4 9329   2.939   4.427   3.767  0.5026 -0.0772  0.2801
 2332SOL     OW 9330   3.385   0.024   3.906  0.1690  0.2128  0.3203
 2332SOL    HW2 9331   3.393   0.049   3.998 -1.3970  2.0775 -0.0138
 2332SOL    HW3 9332   3.459   0.066   3.863  0.4719 -0.0178  0.6193
 2332SOL    MW4 9333   3.396   0.033   3.913  0.0026  0.4284  0.3154
 2333SOL     OW 9334   3.135   0.134   3.801 -0.1768  0.3024  0.0250
 2333SOL    HW2 9335   3.221   0.112   3.838 -0.1215  2.4240  1.2867
 2333SOL    HW3 9336   3.138   0.101   3.712  1.0077 -1.8608  0.8353
 2333SOL    MW4 9337   3.147   0.127   3.794 -0.0134  0.2969  0.2985
 2334SOL     OW 9338   3.151   0.403   3.850  0.1737  0.0748 -0.0584
 2334SOL    HW2 9339   3.157   0.408   3.946 -2.0053 -0.8554  0.1483
 2334SOL    HW3 9340   3.147   0.310   3.831 -2.3195  0.3152 -0.8418
 2334SOL    MW4 9341   3.151   0.392   3.860 -0.4425 -0.0162 -0.1347
 2335SOL     OW 9342   3.370   0.529   3.733  0.2531 -0.2468  0.3838
 2335SOL    HW2 9343   3.446   0.498   3.783  1.0714 -0.3956 -0.9278
 2335SOL    HW3 9344   3.294   0.491   3.778  1.0109 -0.9163  1.1101
 2335SOL    MW4 9345   3.370   0.520   3.746  0.4613 -0.3547  0.3064
 2336SOL     OW 9346   3.355   0.804   3.795  0.6120 -0.1343  0.4741
 2336SOL    HW2 9347   3.373   0.814   3.888 -1.0094 -0.1738  0.8102
 2336SOL    HW3 9348   3.348   0.709   3.781  2.3373 -0.2118 -0.0000
 2336SOL    MW4 9349   3.356   0.793   3.805  0.6258 -0.1498  0.4559
 2337SOL     OW 9350   3.127   0.937   3.718 -0.0940  0.1778 -0.2692
 2337SOL    HW2 9351   3.210   0.899   3.746  0.2857  0.8216 -0.5176
 2337SOL    HW3 9352   3.130   0.935   3.622 -0.0160  0.9408 -0.2878
 2337SOL    MW4 9353   3.138   0.932   3.709 -0.0336  0.3634 -0.3045
 2338SOL     OW 9354   3.145   1.177   3.819 -0.0993 -0.3725  0.4510
 2338SOL    HW2 9355   3.145   1.089   3.782  1.1592  0.1211 -0.7749
 2338SOL    HW3 9356   3.063   1.216   3.788 -1.4801 -1.6318  2.3644
 2338SOL    MW4 9357   3.134   1.170   3.810 -0.1152 -0.4735  0.5419
 2339SOL     OW 9358   3.389   1.308   3.742 -0.1663  0.7012  0.0496
 2339SOL    HW2 9359   3.304   1.276   3.771  0.3877 -1.0386 -0.1414
 2339SOL    HW3 9360   3.383   1.309   3.647 -0.1391  1.0697  0.0512
 2339SOL    MW4 9361   3.377   1.304   3.733 -0.0896  0.5203  0.0243
 2340SOL     OW 9362   3.418   1.548   3.862 -0.0601  0.6177  0.5066
 2340SOL    HW2 9363   3.338   1.596   3.840 -0.7828 -0.1725  1.3578
 2340SOL    HW3 9364   3.407   1.463   3.821  1.2823  1.1925 -1.1178
 2340SOL    MW4 9365   3.406   1.543   3.854  0.0215  0.5891  0.4046
 2341SOL     OW 9366   3.199   1.646   3.747  0.0270  0.1916  0.0393
 2341SOL    HW2 9367   3.192   1.740   3.765 -0.0813  0.0527  0.7389
 2341SOL    HW3 9368   3.210   1.641   3.652 -1.2579  0.8549 -0.1656
 2341SOL    MW4 9369   3.199   1.658   3.736 -0.1569  0.2608  0.1049
 2342SOL     OW 9370   3.152   1.905   3.818 -0.3655 -0.2726  0.4254
 2342SOL    HW2 9371   3.129   1.914   3.910  0.2861  0.0618  0.5611
 2342SOL    HW3 9372   3.085   1.956   3.771 -0.6600 -0.3918  0.7143
 2342SOL    MW4 9373   3.140   1.913   3.824 -0.3185 -0.2443  0.4814
 2343SOL     OW 9374   3.387   2.051   3.768 -0.0845  0.2087 -0.0104
 2343SOL    HW2 9375   3.313   1.991   3.782  2.0350 -2.1584  1.3720
 2343SOL    HW3 9376   3.401   2.050   3.673 -1.2193 -0.0593 -0.1823
 2343SOL    MW4 9377   3.379   2.043   3.757  0.0455 -0.1388  0.1493
 2344SOL     OW 9378   3.356   2.283   3.903 -0.0672 -0.0072 -0.6891
 2344SOL    HW2 9379   3.283   2.321   3.854 -1.1799 -2.3296 -0.8543
 2344SOL    HW3 9380   3.371   2.198   3.863  0.5335 -0.9594  1.4719
 2344SOL    MW4 9381   3.348   2.277   3.891 -0.1342 -0.4394 -0.4258
 2345SOL     OW 9382   3.182   2.441   3.754  0.3017 -0.0959  0.1365
 2345SOL    HW2 9383   3.184   2.534   3.778 -2.1689 -0.2463  1.1739
 2345SOL    HW3 9384   3.177   2.441   3.659  0.0694  0.8735  0.1375
 2345SOL    MW4 9385   3.181   2.453   3.745 -0.0548  0.0124  0.2735
 2346SOL     OW 9386   3.137   2.699   3.855  0.4171 -0.2662  0.3000
 2346SOL    HW2 9387   3.134   2.717   3.949 -0.1303 -1.9328  0.6209
 2346SOL    HW3 9388   3.066   2.752   3.819  1.5097  1.4718  0.5990
 2346SOL    MW4 9389   3.127   2.709   3.863  0.4890 -0.2568  0.3817
 2347SOL     OW 9390   3.364   2.853   3.809  0.5758  0.1451 -0.4853
 2347SOL    HW2 9391   3.276   2.827   3.836  0.2725  1.0548 -0.5896
 2347SOL    HW3 9392   3.363   2.849   3.713  1.1713 -1.5155 -0.4437
 2347SOL    MW4 9393   3.353   2.849   3.800  0.6142  0.0460 -0.4935
 2348SOL     OW 9394   3.375   3.119   3.864 -0.0976 -0.0697 -0.0945
 2348SOL    HW2 9395   3.452   3.155   3.822  1.5084  1.8008  4.1122
 2348SOL    HW3 9396   3.373   3.028   3.838  1.8538  0.5590 -2.5933
 2348SOL    MW4 9397   3.385   3.112   3.855  0.3719  0.2601  0.1311
 2349SOL     OW 9398   3.148   3.275   3.784  0.4605  0.2655 -0.5187
 2349SOL    HW2 9399   3.229   3.232   3.811  0.2531  0.1710 -0.0439
 2349SOL    HW3 9400   3.154   3.278   3.688  0.9222  0.0590 -0.5003
 2349SOL    MW4 9401   3.159   3.270   3.775  0.4942  0.2260 -0.4535
 2350SOL     OW 9402   3.150   3.536   3.894 -0.1236  0.0812  0.5997
 2350SOL    HW2 9403   3.231   3.574   3.860 -0.6834  0.9841  0.2610
 2350SOL    HW3 9404   3.146   3.450   3.853  1.0972 -0.3183  1.2824
 2350SOL    MW4 9405   3.160   3.530   3.884 -0.0362  0.1478  0.6447
 2351SOL     OW 9406   3.379   3.658   3.773  0.0014  0.1230  0.2826
 2351SOL    HW2 9407   3.390   3.749   3.799 -1.5540  0.2699  0.4468
 2351SOL    HW3 9408   3.373   3.662   3.677 -1.1294  0.3040  0.3614
 2351SOL    MW4 9409   3.380   3.671   3.764 -0.3533  0.1662  0.3147
 2352SOL     OW 9410   3.400   3.904   3.873 -0.4272 -0.2115 -0.2644
 2352SOL    HW2 9411   3.477   3.945   3.833 -0.8582  1.5872  0.7144
 2352SOL    HW3 9412   3.326   3.938   3.823 -0.7768  0.0921  0.4571
 2352SOL    MW4 9413   3.401   3.914   3.861 -0.5302  0.0660 -0.0398
 2353SOL     OW 9414   3.164   4.021   3.742 -0.0209  0.5233 -0.1007
 2353SOL    HW2 9415   3.157   4.112   3.770  1.1072  0.5379  0.1836
 2353SOL    HW3 9416   3.086   3.978   3.776 -1.2889  1.7036 -1.4855
 2353SOL    MW4 9417   3.153   4.027   3.750 -0.0393  0.6809 -0.2458
 2354SOL     OW 9418   3.159   4.292   3.866 -0.6493 -0.2991 -0.3935
 2354SOL    HW2 9419   3.164   4.261   3.957 -0.6340 -1.8693 -0.9060
 2354SOL    HW3 9420   3.246   4.327   3.847 -0.1349 -1.5102 -0.3228
 2354SOL    MW4 9421   3.171   4.292   3.876 -0.5791 -0.6657 -0.4518
 2355SOL     OW 9422   3.382   4.449   3.786 -0.3788  0.0708 -0.4750
 2355SOL    HW2 9423   3.459   4.403   3.819 -0.0958  0.1800 -0.9803
 2355SOL    HW3 9424   3.389   4.537   3.823 -0.8988 -0.2773  0.4575
 2355SOL    MW4 9425   3.393   4.454   3.795 -0.4101  0.0391 -0.4184
 2356SOL     OW 9426   3.840   0.063   3.868  0.1167  0.1405 -0.4221
 2356SOL    HW2 9427   3.931   0.085   3.849  0.6503 -1.5333  0.0594
 2356SOL    HW3 9428   3.830  -0.028   3.839 -1.2424  0.1185  0.0381
 2356SOL    MW4 9429   3.850   0.054   3.862  0.0079 -0.0832 -0.2978
 2357SOL     OW 9430   3.595   0.165   3.784 -0.1976 -0.0532  0.4385
 2357SOL    HW2 9431   3.675   0.134   3.825 -1.3391 -1.1169  1.9094
 2357SOL    HW3 9432   3.612   0.157   3.690  1.6275  0.3360  0.7133
 2357SOL    MW4 9433   3.608   0.160   3.777 -0.1075 -0.1422  0.6685
 2358SOL     OW 9434   3.574   0.440   3.885 -0.4763 -0.1590  0.2411
 2358SOL    HW2 9435   3.656   0.479   3.853 -0.6360  1.0593  1.2892
 2358SOL    HW3 9436   3.579   0.348   3.858  0.3367  0.3702 -1.4306
 2358SOL    MW4 9437   3.586   0.433   3.877 -0.3901  0.0715  0.1585
 2359SOL     OW 9438   3.842   0.497   3.821 -0.2227  0.1351 -0.3454
 2359SOL    HW2 9439   3.922   0.456   3.855 -1.0731  0.0432  1.6051
 2359SOL    HW3 9440   3.862   0.591   3.823 -0.0429  0.0952 -0.2176
 2359SOL    MW4 9441   3.855   0.504   3.826 -0.3111  0.1177 -0.0715
 2360SOL     OW 9442   3.797   0.779   3.865  0.0122 -0.3451  0.4612
 2360SOL    HW2 9443   3.887   0.812   3.865  0.6130 -1.9710 -0.2341
 2360SOL    HW3 9444   3.747   0.846   3.818  0.9532  0.2767  0.3427
 2360SOL    MW4 9445   3.802   0.792   3.859  0.2158 -0.4776  0.3541
 2361SOL     OW 9446   3.599   0.950   3.766 -0.3660  0.4814  0.1801
 2361SOL    HW2 9447   3.608   1.036   3.808 -0.1676  0.1333  0.8487
 2361SOL    HW3 9448   3.507   0.926   3.780 -0.2950  0.3565  0.4282
 2361SOL    MW4 9449   3.588   0.958   3.774 -0.3304  0.4190  0.3011
 2362SOL     OW 9450   3.604   1.202   3.893  0.1162 -0.6087 -0.2422
 2362SOL    HW2 9451   3.673   1.236   3.835  0.0826 -0.0301  0.0538
 2362SOL    HW3 9452   3.523   1.214   3.843 -0.1492  1.7145  0.6880
 2362SOL    MW4 9453   3.602   1.208   3.878  0.0768 -0.2258 -0.0806
 2363SOL     OW 9454   3.836   1.267   3.716 -0.1115  0.1380  0.0632
 2363SOL    HW2 9455   3.911   1.226   3.758  0.8608  1.3082 -0.4968
 2363SOL    HW3 9456   3.828   1.353   3.759  0.2043  0.8937 -1.3367
 2363SOL    MW4 9457   3.845   1.273   3.727  0.0584  0.3922 -0.1953
 2364SOL     OW 9458   3.813   1.501   3.852 -0.5462  0.4492 -0.2267
 2364SOL    HW2 9459   3.819   1.512   3.947 -0.1969  0.1478 -0.2110
 2364SOL    HW3 9460   3.752   1.569   3.824  0.0220  1.1092  0.1117
 2364SOL    MW4 9461   3.806   1.511   3.861 -0.4251  0.4965 -0.1800
 2365SOL     OW 9462   3.652   1.687   3.749 -0.1375  0.2462 -0.4705
 2365SOL    HW2 9463   3.576   1.645   3.789  1.1757 -1.8977 -0.1390
 2365SOL    HW3 9464   3.640   1.674   3.655  0.6290 -1.5643 -0.3305
 2365SOL    MW4 9465   3.640   1.680   3.742  0.1369 -0.2756 -0.4082
 2366SOL     OW 9466   3.628   1.946   3.882  0.0827  0.4414 -0.3721
 2366SOL    HW2 9467   3.641   1.863   3.835  0.2750  0.5308 -0.4774
 2366SOL    HW3 9468   3.542   1.977   3.852 -0.6343 -0.4141  0.7239
 2366SOL    MW4 9469   3.618   1.939   3.872  0.0136  0.3403 -0.2410
 2367SOL     OW 9470   3.826   2.102   3.750  0.1549  0.2868 -0.2980
 2367SOL    HW2 9471   3.910   2.066   3.779 -0.8951 -1.2759  0.9285
 2367SOL    HW3 9472   3.761   2.055   3.803 -1.5064  1.2425 -1.4547
 2367SOL    MW4 9473   3.829   2.091   3.761 -0.2029  0.2067 -0.2890
 2368SOL     OW 9474   3.819   2.323   3.901 -0.1357  0.1134 -0.6673
 2368SOL    HW2 9475   3.748   2.383   3.878  0.3769  0.4642 -1.3439
 2368SOL    HW3 9476   3.817   2.256   3.833  0.0587  0.0221 -0.5844
 2368SOL    MW4 9477   3.810   2.322   3.889 -0.0424  0.1478 -0.7458
 2369SOL     OW 9478   3.593   2.455   3.816 -0.1736 -0.2979  0.1437
 2369SOL    HW2 9479   3.517   2.408   3.851 -0.9850  0.2639 -0.8421
 2369SOL    HW3 9480   3.583   2.448   3.721  1.1418 -0.4263  0.0101
 2369SOL    MW4 9481   3.581   2.448   3.808 -0.1070 -0.2408 -0.0038
 2370SOL     OW 9482   3.603   2.724   3.842 -0.4962  0.2300  0.0754
 2370SOL    HW2 9483   3.587   2.630   3.853  1.3452 -0.0553  0.5398
 2370SOL    HW3 9484   3.516   2.762   3.828 -1.2038 -1.6251 -0.7697
 2370SOL    MW4 9485   3.590   2.716   3.842 -0.3464 -0.0525  0.0250
 2371SOL     OW 9486   3.851   2.830   3.776  0.4807 -0.0157 -0.4432
 2371SOL    HW2 9487   3.910   2.782   3.833  0.8363  0.9214 -0.0284
 2371SOL    HW3 9488   3.764   2.794   3.796  0.9358 -1.6718 -1.3440
 2371SOL    MW4 9489   3.847   2.819   3.786  0.5877 -0.1106 -0.5071
 2372SOL     OW 9490   3.827   3.113   3.890 -0.4939 -0.3106 -0.0147
 2372SOL    HW2 9491   3.748   3.151   3.851 -0.1496 -0.5832 -1.0072
 2372SOL    HW3 9492   3.833   3.026   3.850  1.2247  0.3425 -1.2070
 2372SOL    MW4 9493   3.817   3.106   3.879 -0.2220 -0.2606 -0.3033
 2373SOL     OW 9494   3.607   3.250   3.756 -0.0302 -0.2823  0.0301
 2373SOL    HW2 9495   3.608   3.341   3.785 -0.0068 -0.5166  0.7714
 2373SOL    HW3 9496   3.604   3.255   3.660  1.1978  0.4971  0.0216
 2373SOL    MW4 9497   3.607   3.262   3.747  0.1347 -0.2103  0.1268
 2374SOL     OW 9498   3.601   3.502   3.883 -0.3433 -0.0289 -0.2188
 2374SOL    HW2 9499   3.598   3.506   3.979 -0.0809 -1.0777 -0.1539
 2374SOL    HW3 9500   3.516   3.534   3.854 -0.2831  0.6568  0.3505
 2374SOL    MW4 9501   3.590   3.507   3.892 -0.3009 -0.0765 -0.1349
 2375SOL     OW 9502   3.821   3.648   3.771  0.1257 -0.1959 -0.3164
 2375SOL    HW2 9503   3.824   3.736   3.808  0.8887 -0.5585  0.4949
 2375SOL    HW3 9504   3.753   3.603   3.822 -0.4560 -0.0039 -0.9109
 2375SOL    MW4 9505   3.812   3.653   3.782  0.1500 -0.2184 -0.2878
 2376SOL     OW 9506   3.847   3.902   3.875  0.1603  0.6738  0.2010
 2376SOL    HW2 9507   3.859   3.908   3.969  0.7462 -0.4171  0.1977
 2376SOL    HW3 9508   3.925   3.944   3.838  0.2448  0.5196  0.2033
 2376SOL    MW4 9509   3.859   3.909   3.882  0.2487  0.5097  0.2010
 2377SOL     OW 9510   3.593   4.044   3.757 -0.2336  0.1263  0.3340
 2377SOL    HW2 9511   3.596   4.137   3.781 -0.7765 -0.4491  2.8532
 2377SOL    HW3 9512   3.681   4.012   3.775  0.2753  0.3834 -1.6303
 2377SOL    MW4 9513   3.605   4.052   3.763 -0.2382  0.0844  0.4072
 2378SOL     OW 9514   3.602   4.306   3.866  0.2926 -0.2545  0.4809
 2378SOL    HW2 9515   3.617   4.294   3.960  0.7370  0.3249  0.4822
 2378SOL    HW3 9516   3.677   4.357   3.836  0.2424 -0.6013 -0.2257
 2378SOL    MW4 9517   3.614   4.311   3.875  0.3443 -0.2236  0.3879
 2379SOL     OW 9518   3.814   4.449   3.772  0.1279  0.4207 -0.3536
 2379SOL    HW2 9519   3.888   4.406   3.815 -0.9042 -0.6690  0.3295
 2379SOL    HW3 9520   3.818   4.417   3.681 -0.6228 -1.1145  0.1444
 2379SOL    MW4 9521   3.824   4.439   3.765 -0.1073  0.0739 -0.1979
 2380SOL     OW 9522   4.318   4.665   3.887 -0.1914 -0.2867  0.2809
 2380SOL    HW2 9523   4.325   4.693   3.979  0.9183 -1.2004  0.4864
 2380SOL    HW3 9524   4.399   4.697   3.846  0.0670 -1.2819  0.0059
 2380SOL    MW4 9525   4.330   4.673   3.894 -0.0110 -0.5388  0.2718
 2381SOL     OW 9526   4.091   0.124   3.793  0.2221 -0.1981 -0.0069
 2381SOL    HW2 9527   4.171   0.080   3.820  1.7874  2.5906  0.1781
 2381SOL    HW3 9528   4.082   0.103   3.700  1.0386 -0.7665  0.0395
 2381SOL    MW4 9529   4.100   0.116   3.784  0.5364  0.0948  0.0238
 2382SOL     OW 9530   4.083   0.389   3.900 -0.2005  0.6625  0.1936
 2382SOL    HW2 9531   4.075   0.383   3.995  1.5756  0.9932  0.3786
 2382SOL    HW3 9532   4.080   0.298   3.870  0.8861  0.4326  0.7307
 2382SOL    MW4 9533   4.082   0.376   3.908  0.1769  0.6758  0.2887
 2383SOL     OW 9534   4.293   0.521   3.771  0.2738  0.5298  0.0348
 2383SOL    HW2 9535   4.229   0.466   3.815  1.1107 -0.5850 -0.0971
 2383SOL    HW3 9536   4.274   0.509   3.678  0.7291  0.1234 -0.0070
 2383SOL    MW4 9537   4.282   0.512   3.764  0.4444  0.3291  0.0117
 2384SOL     OW 9538   4.289   0.776   3.868  0.5889 -0.6033 -0.0500
 2384SOL    HW2 9539   4.213   0.828   3.842  0.2453 -0.7172  0.7254
 2384SOL    HW3 9540   4.279   0.693   3.821  0.2770 -0.5918 -0.0027
 2384SOL    MW4 9541   4.278   0.772   3.858  0.5021 -0.6167  0.0584
 2385SOL     OW 9542   4.061   0.894   3.782 -0.2307  0.1655 -0.2069
 2385SOL    HW2 9543   4.065   0.983   3.818 -0.8219  0.3458 -0.5749
 2385SOL    HW3 9544   4.057   0.908   3.687 -0.5729 -0.2434 -0.2535
 2385SOL    MW4 9545   4.061   0.908   3.774 -0.3538  0.1354 -0.2613
 2386SOL     OW 9546   4.040   1.157   3.868  0.5876 -0.1520 -0.2813
 2386SOL    HW2 9547   4.030   1.156   3.964 -0.3886  0.7020 -0.3702
 2386SOL    HW3 9548   4.129   1.188   3.854  0.8176 -0.4954  0.3529
 2386SOL    MW4 9549   4.051   1.161   3.879  0.4892 -0.0846 -0.2093
 2387SOL     OW 9550   4.279   1.252   3.785 -0.6308  0.4752  0.5209
 2387SOL    HW2 9551   4.266   1.342   3.814  1.2025  1.1231 -0.5365
 2387SOL    HW3 9552   4.253   1.252   3.693 -0.3865 -0.0096  0.4455
 2387SOL    MW4 9553   4.274   1.264   3.777 -0.3567  0.4967  0.3715
 2388SOL     OW 9554   4.234   1.515   3.868 -0.5861 -0.2299 -0.2390
 2388SOL    HW2 9555   4.157   1.557   3.829 -0.3639 -0.4883 -0.9690
 2388SOL    HW3 9556   4.309   1.564   3.833 -0.4334  0.2475  0.7520
 2388SOL    MW4 9557   4.234   1.527   3.858 -0.5360 -0.2011 -0.2046
 2389SOL     OW 9558   4.027   1.675   3.780 -0.3504 -0.0333  0.1523
 2389SOL    HW2 9559   4.042   1.766   3.807  0.1965 -0.4760  1.3591
 2389SOL    HW3 9560   3.938   1.656   3.811 -0.7097  0.2777 -0.6566
 2389SOL    MW4 9561   4.017   1.685   3.788 -0.3257 -0.0507  0.2050
 2390SOL     OW 9562   4.049   1.957   3.863  0.6484  0.0468  0.3609
 2390SOL    HW2 9563   4.035   1.976   3.956  2.4127  2.1188  0.2268
 2390SOL    HW3 9564   4.126   2.008   3.839  1.5777 -2.2426 -1.7045
 2390SOL    MW4 9565   4.057   1.966   3.872  1.0037  0.0182  0.0706
 2391SOL     OW 9566   4.271   2.104   3.753  0.5064 -0.0241 -0.1872
 2391SOL    HW2 9567   4.268   2.193   3.787 -1.2631  0.0114 -0.4052
 2391SOL    HW3 9568   4.250   2.113   3.661  1.3323 -0.5721 -0.4385
 2391SOL    MW4 9569   4.268   2.117   3.746  0.3819 -0.0916 -0.2491
 2392SOL     OW 9570   4.235   2.368   3.836 -0.2142  0.2376 -0.0273
 2392SOL    HW2 9571   4.210   2.365   3.928 -0.1515 -1.4770 -0.0513
 2392SOL    HW3 9572   4.156   2.397   3.790 -0.8758 -0.9743  0.3424
 2392SOL    MW4 9573   4.222   2.372   3.842 -0.2933 -0.1483  0.0184
 2393SOL     OW 9574   3.980   2.485   3.730  0.1117  0.1505 -0.1235
 2393SOL    HW2 9575   3.997   2.565   3.779 -0.2478 -0.1222  0.4479
 2393SOL    HW3 9576   3.924   2.433   3.787  3.1888 -2.0579  1.0497
 2393SOL    MW4 9577   3.975   2.488   3.744  0.4702 -0.1769  0.1066
 2394SOL     OW 9578   4.050   2.688   3.909 -0.3094 -0.5537  0.3270
 2394SOL    HW2 9579   4.062   2.699   4.004  0.2038  0.5142  0.1475
 2394SOL    HW3 9580   4.133   2.717   3.871 -0.7967 -0.2204 -0.4954
 2394SOL    MW4 9581   4.062   2.694   3.917 -0.3061 -0.3686  0.1945
 2395SOL     OW 9582   4.267   2.788   3.769  0.5592  0.5135 -0.0714
 2395SOL    HW2 9583   4.258   2.877   3.805  0.3911  0.3924  0.1868
 2395SOL    HW3 9584   4.350   2.756   3.806  1.0084  0.8465 -0.7767
 2395SOL    MW4 9585   4.277   2.796   3.779  0.5965  0.5412 -0.1307
 2396SOL     OW 9586   4.259   3.102   3.898  0.2363  0.0085 -0.2584
 2396SOL    HW2 9587   4.197   3.164   3.860 -1.3684 -0.8312  0.9005
 2396SOL    HW3 9588   4.345   3.134   3.871 -0.6524  1.7222 -1.1452
 2396SOL    MW4 9589   4.262   3.115   3.890 -0.0930  0.1237 -0.2224
 2397SOL     OW 9590   4.063   3.252   3.764 -0.6911  0.2169  0.2612
 2397SOL    HW2 9591   4.000   3.202   3.817  0.0793 -2.2093 -1.0288
 2397SOL    HW3 9592   4.034   3.238   3.674  1.4569 -0.6453 -0.3235
 2397SOL    MW4 9593   4.051   3.244   3.759 -0.3061 -0.2170  0.0141
 2398SOL     OW 9594   4.049   3.530   3.893  0.1630 -0.4342  0.5941
 2398SOL    HW2 9595   4.038   3.445   3.850 -0.1080 -0.0796 -0.0503
 2398SOL    HW3 9596   3.973   3.581   3.865  0.1206 -0.1105  1.2926
 2398SOL    MW4 9597   4.038   3.525   3.884  0.1211 -0.3448  0.6015
 2399SOL     OW 9598   4.291   3.627   3.778 -0.2127 -0.2948 -0.0418
 2399SOL    HW2 9599   4.211   3.590   3.816  0.0933  0.6577  1.6033
 2399SOL    HW3 9600   4.361   3.570   3.809 -0.0847 -0.2013 -0.1581
 2399SOL    MW4 9601   4.290   3.615   3.787 -0.1550 -0.1566  0.1600
 2400SOL     OW 9602   4.316   3.884   3.906  0.0641 -0.2519  0.2351
 2400SOL    HW2 9603   4.252   3.935   3.856 -0.3947  0.1251  1.1934
 2400SOL    HW3 9604   4.312   3.797   3.867  1.0535  0.4986 -1.5972
 2400SOL    MW4 9605   4.307   3.879   3.894  0.1345 -0.1032  0.1199
 2401SOL     OW 9606   4.103   4.027   3.799  0.0680 -0.4338  0.6625
 2401SOL    HW2 9607   4.089   4.120   3.819  0.2804 -0.2673  0.0416
 2401SOL    HW3 9608   4.086   4.020   3.705 -1.3707 -1.2916  0.9643
 2401SOL    MW4 9609   4.099   4.038   3.789 -0.0939 -0.5245  0.6204
 2402SOL     OW 9610   4.017   4.288   3.857  0.0748 -0.0315 -0.1374
 2402SOL    HW2 9611   4.018   4.287   3.952  2.6535 -0.4130 -0.1497
 2402SOL    HW3 9612   4.100   4.329   3.832 -0.2691 -0.5380 -2.2330
 2402SOL    MW4 9613   4.028   4.294   3.866  0.3691 -0.1483 -0.4156
 2403SOL     OW 9614   4.298   4.404   3.763  0.2252  0.5769 -0.2467
 2403SOL    HW2 9615   4.310   4.484   3.813  0.8188 -0.2508  0.9750
 2403SOL    HW3 9616   4.364   4.344   3.798  0.2246 -0.2360 -1.5833
 2403SOL    MW4 9617   4.309   4.406   3.774  0.3033  0.3605 -0.2615
 2404SOL     OW 9618   0.260   4.665   4.144  0.4570 -0.0873  0.3693
 2404SOL    HW2 9619   0.335   4.702   4.191 -1.1895  0.6316  2.5190
 2404SOL    HW3 9620   0.247   4.579   4.184  0.7052 -0.6018 -0.6526
 2404SOL    MW4 9621   0.268   4.659   4.156  0.2725 -0.0601  0.5178
 2405SOL     OW 9622   0.062   0.158   4.249 -0.0193 -0.5030  0.7675
 2405SOL    HW2 9623   0.097   0.171   4.337 -0.3267  0.3929  0.7661
 2405SOL    HW3 9624   0.129   0.108   4.203  0.6887  0.1012  1.1419
 2405SOL    MW4 9625   0.075   0.153   4.255  0.0335 -0.3051  0.8173
 2406SOL     OW 9626   4.479   0.394   4.156 -0.1871  0.0356 -0.0045
 2406SOL    HW2 9627   4.492   0.304   4.187 -0.0713  0.3308  0.8291
 2406SOL    HW3 9628   4.485   0.389   4.061  0.2716 -0.7625  0.0699
 2406SOL    MW4 9629   4.481   0.382   4.148 -0.1113 -0.0308  0.1149
 2407SOL     OW 9630   0.215   0.503   4.294 -0.2228  0.4280 -0.1921
 2407SOL    HW2 9631   0.296   0.461   4.263 -0.0034  1.5383 -1.1751
 2407SOL    HW3 9632   0.146   0.462   4.241 -0.1688  0.3131 -0.1745
 2407SOL    MW4 9633   0.217   0.492   4.283 -0.1867  0.5594 -0.3195
 2408SOL     OW 9634   0.228   0.758   4.188  0.0043  0.3271  0.5433
 2408SOL    HW2 9635   0.161   0.809   4.235  1.6567  0.8828  2.3545
 2408SOL    HW3 9636   0.224   0.672   4.229 -0.4163 -0.0005 -0.1775
 2408SOL    MW4 9637   0.219   0.754   4.200  0.1668  0.3572  0.6871
 2409SOL     OW 9638   0.010   0.881   4.330 -0.0007 -0.5741  0.7638
 2409SOL    HW2 9639  -0.052   0.852   4.264 -1.6152  0.3724  1.8274
 2409SOL    HW3 9640   0.020   0.975   4.316  1.3647 -0.7544  0.4655
 2409SOL    MW4 9641   0.003   0.889   4.320 -0.0336 -0.4730  0.8645
 2410SOL     OW 9642   0.032   1.132   4.197 -0.4510  0.7807 -0.2498
 2410SOL    HW2 9643   0.087   1.202   4.231  0.3057  0.5329 -0.9390
 2410SOL    HW3 9644   0.029   1.147   4.102 -1.0253  0.4081 -0.2951
 2410SOL    MW4 9645   0.039   1.143   4.189 -0.4269  0.6987 -0.3467
 2411SOL     OW 9646   0.246   1.294   4.255  0.1534 -0.0935 -0.3728
 2411SOL    HW2 9647   0.283   1.283   4.342  0.1148  1.0823 -0.1951
 2411SOL    HW3 9648   0.289   1.227   4.201  0.5185 -0.5134  0.4414
 2411SOL    MW4 9649   0.257   1.284   4.259  0.1965  0.0063 -0.2422
 2412SOL     OW 9650   0.085   1.506   4.610 -0.2058 -0.3415  0.5456
 2412SOL    HW2 9651   0.172   1.536   4.635  0.4020  0.1697 -2.0459
 2412SOL    HW3 9652   0.044   1.582   4.569 -1.3209 -1.0030  0.4102
 2412SOL    MW4 9653   0.091   1.520   4.608 -0.2727 -0.3612  0.1860
 2413SOL     OW 9654   0.006   1.694   4.213 -0.2875  0.1120 -0.3090
 2413SOL    HW2 9655  -0.064   1.637   4.180 -0.7180  0.9779 -0.9057
 2413SOL    HW3 9656  -0.025   1.783   4.196  0.9352  0.5027 -0.5506
 2413SOL    MW4 9657  -0.007   1.698   4.206 -0.1830  0.2779 -0.4196
 2414SOL     OW 9658   0.224   2.001   4.225  0.5198  0.4355 -0.4167
 2414SOL    HW2 9659   0.217   1.999   4.321 -1.1459  1.2836 -0.5091
 2414SOL    HW3 9660   0.297   1.942   4.206  1.2167  0.6595  1.4031
 2414SOL    MW4 9661   0.233   1.993   4.235  0.3920  0.5770 -0.1888
 2415SOL     OW 9662   0.450   1.828   4.567  0.3622  0.1898  0.1024
 2415SOL    HW2 9663   0.361   1.858   4.546  0.6441  0.6898 -0.3915
 2415SOL    HW3 9664   0.479   1.783   4.488  0.7544  0.5064  0.0652
 2415SOL    MW4 9665   0.442   1.826   4.554  0.4511  0.2975  0.0324
 2416SOL     OW 9666   0.224   2.254   4.106 -0.4228 -0.2317  0.3236
 2416SOL    HW2 9667   0.298   2.312   4.124 -0.3001 -0.1125 -0.5382
 2416SOL    HW3 9668   0.239   2.178   4.162  0.6065 -0.4169 -0.1968
 2416SOL    MW4 9669   0.236   2.252   4.116 -0.2708 -0.2406  0.1411
 2417SOL     OW 9670   0.047   2.439   4.213 -0.3178  0.0729 -0.3263
 2417SOL    HW2 9671  -0.041   2.416   4.183 -0.3344 -0.6089  0.2266
 2417SOL    HW3 9672   0.103   2.368   4.182 -0.2767 -0.4521  0.8967
 2417SOL    MW4 9673   0.042   2.426   4.205 -0.3145 -0.0868 -0.0925
 2418SOL     OW 9674   0.018   2.703   4.162 -0.1559  0.6455  0.5244
 2418SOL    HW2 9675   0.082   2.754   4.211  0.7858  0.5146 -0.5466
 2418SOL    HW3 9676   0.023   2.615   4.200 -0.5079  0.9182  1.1947
 2418SOL    MW4 9677   0.027   2.698   4.173 -0.0781  0.6642  0.4716
 2419SOL     OW 9678   0.234   2.853   4.299  0.4453  0.2468  0.6626
 2419SOL    HW2 9679   0.293   2.801   4.244  0.7229 -0.9635  2.0951
 2419SOL    HW3 9680   0.219   2.932   4.248  0.3468 -1.0448 -1.3836
 2419SOL    MW4 9681   0.240   2.856   4.285  0.4689 -0.0832  0.5817
 2420SOL     OW 9682   0.226   3.097   4.126  0.1809 -0.3137 -0.3524
 2420SOL    HW2 9683   0.308   3.138   4.153 -0.4119  1.5031 -1.2235
 2420SOL    HW3 9684   0.158   3.151   4.166 -0.6912  1.6607 -4.2775
 2420SOL    MW4 9685   0.228   3.110   4.135 -0.0124  0.1864 -0.9851
 2421SOL     OW 9686   4.474   3.237   4.249 -0.0060 -0.0285  0.6109
 2421SOL    HW2 9687   4.395   3.206   4.206  0.5674  0.4285 -0.8014
 2421SOL    HW3 9688   4.483   3.328   4.221  0.5623  0.1792  1.4320
 2421SOL    MW4 9689   4.465   3.245   4.240  0.1450  0.0591  0.5331
 2422SOL     OW 9690   0.007   3.495   4.136 -0.0842  0.2823  0.3804
 2422SOL    HW2 9691  -0.066   3.548   4.169 -0.3003 -0.1369  0.5809
 2422SOL    HW3 9692  -0.007   3.491   4.042 -1.1816 -1.0612  0.5748
 2422SOL    MW4 9693  -0.005   3.501   4.128 -0.2575  0.0496  0.4325
 2423SOL     OW 9694   0.245   3.576   4.229 -0.2870  0.2801  0.2223
 2423SOL    HW2 9695   0.313   3.517   4.195 -1.3840  0.0360 -1.6530
 2423SOL    HW3 9696   0.164   3.544   4.188 -1.0751  2.3880  0.0873
 2423SOL    MW4 9697   0.243   3.564   4.219 -0.5358  0.5262 -0.0434
 2424SOL     OW 9698   0.292   3.852   4.172 -0.4674 -0.2388 -0.0316
 2424SOL    HW2 9699   0.215   3.898   4.206  0.7427  2.5998 -0.9418
 2424SOL    HW3 9700   0.278   3.760   4.196 -3.2033  0.5111  1.4776
 2424SOL    MW4 9701   0.280   3.846   4.180 -0.6687  0.2344  0.0472
 2425SOL     OW 9702   0.066   3.972   4.272 -0.0328  0.6111 -0.1861
 2425SOL    HW2 9703   0.065   3.988   4.366  2.7229 -1.8293  0.3206
 2425SOL    HW3 9704  -0.022   3.939   4.252 -0.4525  0.6003  1.6135
 2425SOL    MW4 9705   0.054   3.970   4.282  0.2754  0.2878  0.1183
 2426SOL     OW 9706   0.030   4.224   4.148 -0.2323 -0.4056  0.6426
 2426SOL    HW2 9707   0.041   4.134   4.179  0.1990 -1.1918 -1.7226
 2426SOL    HW3 9708   0.015   4.216   4.054 -0.3515  2.0014  0.4191
 2426SOL    MW4 9709   0.029   4.211   4.140 -0.1912 -0.1917  0.3014
 2427SOL     OW 9710   0.199   4.415   4.252 -0.5352 -0.0459 -0.3006
 2427SOL    HW2 9711   0.167   4.423   4.342  0.0859  0.7009 -0.1413
 2427SOL    HW3 9712   0.139   4.353   4.211 -1.5311  0.5074  0.2969
 2427SOL    MW4 9713   0.186   4.408   4.259 -0.5846  0.1259 -0.2007
 2428SOL     OW 9714   0.703   4.650   4.260 -0.1697 -0.1612  0.3053
 2428SOL    HW2 9715   0.613   4.681   4.270 -0.5157 -0.7483 -0.9325
 2428SOL    HW3 9716   0.722   4.660   4.167  0.7260 -0.9130  0.3967
 2428SOL    MW4 9717   0.694   4.656   4.249 -0.0972 -0.3376  0.1535
 2429SOL     OW 9718   0.458   0.098   4.291 -0.3828 -0.1312 -0.1258
 2429SOL    HW2 9719   0.419   0.091   4.378  0.6095 -1.4360  0.2152
 2429SOL    HW3 9720   0.471   0.192   4.278 -3.1716  0.3230 -0.0540
 2429SOL    MW4 9721   0.455   0.110   4.301 -0.6198 -0.2435 -0.0710
 2430SOL     OW 9722   0.456   0.357   4.207  0.2361 -0.2783  0.1805
 2430SOL    HW2 9723   0.522   0.414   4.246  0.4496  0.1586 -0.8143
 2430SOL    HW3 9724   0.480   0.352   4.114 -1.1806 -0.0623 -0.2000
 2430SOL    MW4 9725   0.468   0.364   4.200  0.0774 -0.1921 -0.0010
 2431SOL     OW 9726   0.680   0.500   4.289 -0.1687  0.2538 -0.0547
 2431SOL    HW2 9727   0.753   0.469   4.236  0.4342 -0.6398  1.2680
 2431SOL    HW3 9728   0.672   0.593   4.267  1.5173  0.4114 -0.0586
 2431SOL    MW4 9729   0.689   0.508   4.279  0.1333  0.1567  0.1197
 2432SOL     OW 9730   0.701   0.774   4.217 -0.0640 -0.1537 -0.2253
 2432SOL    HW2 9731   0.633   0.835   4.247 -0.0707 -0.3954  0.2513
 2432SOL    HW3 9732   0.699   0.782   4.122  0.2753  0.9603 -0.1419
 2432SOL    MW4 9733   0.691   0.783   4.208 -0.0201 -0.0387 -0.1512
 2433SOL     OW 9734   0.462   0.904   4.265 -0.1997  0.4940 -0.0250
 2433SOL    HW2 9735   0.451   0.993   4.230  1.0126  0.1047 -1.4445
 2433SOL    HW3 9736   0.391   0.854   4.225 -0.9348  0.8302  0.8402
 2433SOL    MW4 9737   0.451   0.909   4.255 -0.1368  0.4870 -0.0978
 2434SOL     OW 9738   0.469   1.152   4.151 -0.1105 -0.4667  0.3967
 2434SOL    HW2 9739   0.534   1.204   4.199 -0.3650  0.2850 -0.0757
 2434SOL    HW3 9740   0.500   1.153   4.060  0.3037 -1.7829  0.5166
 2434SOL    MW4 9741   0.482   1.159   4.145 -0.0895 -0.5411  0.3500
 2435SOL     OW 9742   0.691   1.283   4.277  0.0188 -1.0675 -0.3556
 2435SOL    HW2 9743   0.697   1.299   4.371 -0.1856 -1.3252 -0.2989
 2435SOL    HW3 9744   0.692   1.370   4.238  2.1268 -1.0109 -0.2371
 2435SOL    MW4 9745   0.692   1.297   4.284  0.2700 -1.0940 -0.3324
 2436SOL     OW 9746   0.696   1.529   4.164 -0.2800 -0.4937  0.0541
 2436SOL    HW2 9747   0.789   1.552   4.171 -0.9947  2.3497  0.8760
 2436SOL    HW3 9748   0.679   1.525   4.069  0.1579  1.3898 -0.1271
 2436SOL    MW4 9749   0.706   1.531   4.152 -0.3166  0.1301  0.1388
 2437SOL     OW 9750   0.259   1.579   4.156  0.0699  0.7299 -0.1628
 2437SOL    HW2 9751   0.272   1.501   4.209 -1.2635  0.6557  0.0715
 2437SOL    HW3 9752   0.178   1.618   4.189 -0.5895  0.8793 -1.8912
 2437SOL    MW4 9753   0.250   1.574   4.168 -0.1930  0.7399 -0.3595
 2438SOL     OW 9754   0.425   1.819   4.177 -0.3202 -0.0983 -0.1143
 2438SOL    HW2 9755   0.387   1.731   4.172  1.2747 -0.8106  0.0853
 2438SOL    HW3 9756   0.455   1.837   4.088 -1.2990  0.5427 -0.3142
 2438SOL    MW4 9757   0.424   1.810   4.165 -0.2390 -0.1078 -0.1140
 2439SOL     OW 9758   0.715   2.023   4.289  0.2242  0.4612 -0.0237
 2439SOL    HW2 9759   0.711   2.046   4.382  0.2444 -0.5355  0.2271
 2439SOL    HW3 9760   0.643   1.962   4.277  0.2352  0.5720 -0.6671
 2439SOL    MW4 9761   0.705   2.018   4.299  0.2283  0.3445 -0.0758
 2440SOL     OW 9762   0.686   2.274   4.141  0.1326 -0.1258 -0.6102
 2440SOL    HW2 9763   0.711   2.187   4.171  0.4072 -0.1337 -0.8556
 2440SOL    HW3 9764   0.702   2.273   4.046  2.1673  0.8618 -0.3044
 2440SOL    MW4 9765   0.691   2.263   4.132  0.4373  0.0036 -0.6022
 2441SOL     OW 9766   0.464   2.415   4.167  0.1627  0.6218  0.1109
 2441SOL    HW2 9767   0.476   2.503   4.131  0.5780  0.7627  0.5674
 2441SOL    HW3 9768   0.549   2.372   4.153  0.8699  1.2021  2.2729
 2441SOL    MW4 9769   0.477   2.421   4.161  0.3108  0.7169  0.4568
 2442SOL     OW 9770   0.426   2.709   4.144  0.1206 -0.4068 -0.5222
 2442SOL    HW2 9771   0.514   2.731   4.171  0.0749 -0.9159  0.0566
 2442SOL    HW3 9772   0.429   2.708   4.048  0.4627  0.6633 -0.5241
 2442SOL    MW4 9773   0.438   2.712   4.135  0.1597 -0.3328 -0.4458
 2443SOL     OW 9774   0.655   2.799   4.260 -0.9284 -0.0237  0.1686
 2443SOL    HW2 9775   0.684   2.801   4.351 -1.5335 -0.2322  0.3683
 2443SOL    HW3 9776   0.648   2.891   4.235  1.6675  0.0316 -0.4511
 2443SOL    MW4 9777   0.658   2.811   4.269 -0.6657 -0.0439  0.1130
 2444SOL     OW 9778   0.663   3.052   4.144 -0.7047 -0.1685  0.0828
 2444SOL    HW2 9779   0.740   3.096   4.180 -0.2852 -1.5438  0.9301
 2444SOL    HW3 9780   0.589   3.108   4.168 -0.0653  0.7056  0.0372
 2444SOL    MW4 9781   0.663   3.065   4.152 -0.5651 -0.2346  0.1893
 2445SOL     OW 9782   0.471   3.224   4.245 -0.5063 -0.3413 -0.4270
 2445SOL    HW2 9783   0.490   3.260   4.331 -0.0305 -0.6535 -0.4018
 2445SOL    HW3 9784   0.468   3.300   4.187 -0.1098 -0.2057 -0.2667
 2445SOL    MW4 9785   0.473   3.238   4.249 -0.3912 -0.3648 -0.4029
 2446SOL     OW 9786   0.450   3.458   4.111  0.1335 -0.3740  0.5221
 2446SOL    HW2 9787   0.521   3.502   4.159 -0.0823 -0.9277  1.3610
 2446SOL    HW3 9788   0.461   3.488   4.021  1.2369 -0.1954  0.6970
 2446SOL    MW4 9789   0.461   3.468   4.105  0.2506 -0.4234  0.6566
 2447SOL     OW 9790   0.682   3.628   4.260  0.1487 -0.3488 -0.4704
 2447SOL    HW2 9791   0.677   3.618   4.355  1.1783  2.4180 -0.0936
 2447SOL    HW3 9792   0.764   3.585   4.236 -0.6660 -2.0533 -0.2853
 2447SOL    MW4 9793   0.692   3.621   4.269  0.1770 -0.2086 -0.3967
 2448SOL     OW 9794   0.714   3.884   4.113  0.1081 -0.1594 -0.3839
 2448SOL    HW2 9795   0.640   3.934   4.150 -1.0658 -0.3592 -2.3905
 2448SOL    HW3 9796   0.712   3.801   4.160 -1.0553 -0.2154 -0.4947
 2448SOL    MW4 9797   0.704   3.880   4.124 -0.2003 -0.1929 -0.6628
 2449SOL     OW 9798   0.510   3.998   4.250 -0.0942 -0.0963 -0.0177
 2449SOL    HW2 9799   0.487   4.090   4.236 -0.0036  0.1362  1.3082
 2449SOL    HW3 9800   0.432   3.950   4.222 -0.0430  0.3633 -0.9709
 2449SOL    MW4 9801   0.497   4.004   4.245 -0.0755 -0.0052  0.0315
 2450SOL     OW 9802   0.415   4.257   4.200  0.2637 -0.4174  0.5258
 2450SOL    HW2 9803   0.338   4.309   4.223 -0.0321  0.2112 -1.6826
 2450SOL    HW3 9804   0.419   4.262   4.104  3.3955  0.0286  0.6382
 2450SOL    MW4 9805   0.406   4.264   4.190  0.6379 -0.2751  0.2494
 2451SOL     OW 9806   0.670   4.356   4.279  0.2618 -0.0302  0.1321
 2451SOL    HW2 9807   0.586   4.312   4.269  0.5898 -0.9476  1.2599
 2451SOL    HW3 9808   0.653   4.447   4.256 -0.7405 -0.4621 -0.9159
 2451SOL    MW4 9809   0.657   4.362   4.275  0.1727 -0.2084  0.1426
 2452SOL     OW 9810   1.125   0.028   4.144 -0.1757 -0.2361 -0.0204
 2452SOL    HW2 9811   1.111  -0.066   4.156 -0.5054 -0.0986  0.6829
 2452SOL    HW3 9812   1.152   0.036   4.052 -0.0323 -1.0284 -0.0577
 2452SOL    MW4 9813   1.127   0.016   4.133 -0.2004 -0.3225  0.0677
 2453SOL     OW 9814   0.924   0.130   4.299 -0.0518  0.5804 -0.1877
 2453SOL    HW2 9815   0.982   0.089   4.235  1.1557 -0.3479  1.4733
 2453SOL    HW3 9816   0.846   0.075   4.299  0.1159  0.3411 -0.5681
 2453SOL    MW4 9817   0.921   0.117   4.290  0.1296  0.4264 -0.0191
 2454SOL     OW 9818   0.904   0.382   4.176 -0.2856 -0.0059  0.0368
 2454SOL    HW2 9819   0.989   0.424   4.188  0.9036 -0.9805 -4.1171
 2454SOL    HW3 9820   0.912   0.298   4.221 -0.0238  0.9991  1.9052
 2454SOL    MW4 9821   0.916   0.376   4.183 -0.0941 -0.0019 -0.2646
 2455SOL     OW 9822   1.157   0.502   4.225 -0.0167  0.1939 -0.0438
 2455SOL    HW2 9823   1.177   0.509   4.318 -1.9478 -1.1537  0.4942
 2455SOL    HW3 9824   1.226   0.446   4.190 -0.0484 -0.4032  0.8300
 2455SOL    MW4 9825   1.169   0.496   4.233 -0.2757 -0.0628  0.1426
 2456SOL     OW 9826   1.129   0.753   4.131 -0.7361 -0.7342 -0.2502
 2456SOL    HW2 9827   1.191   0.804   4.183 -1.1848  0.8451 -1.2512
 2456SOL    HW3 9828   1.140   0.663   4.162  0.4017 -0.1089  1.1953
 2456SOL    MW4 9829   1.138   0.748   4.142 -0.6453 -0.4434 -0.1912
 2457SOL     OW 9830   0.942   0.890   4.287  0.1064  0.6308 -0.5213
 2457SOL    HW2 9831   1.006   0.841   4.236  0.1864  0.6422 -0.4304
 2457SOL    HW3 9832   0.859   0.846   4.270  0.2135  0.3312 -0.2685
 2457SOL    MW4 9833   0.939   0.878   4.278  0.1311  0.5928 -0.4754
 2458SOL     OW 9834   0.901   1.136   4.154  0.1817 -0.0847  0.1750
 2458SOL    HW2 9835   0.913   1.046   4.184 -0.0222 -0.1591  0.0367
 2458SOL    HW3 9836   0.828   1.169   4.205  0.5885  0.1733  0.5948
 2458SOL    MW4 9837   0.893   1.129   4.164  0.2085 -0.0604  0.2122
 2459SOL     OW 9838   1.125   1.259   4.290 -0.2241  0.2688 -0.0747
 2459SOL    HW2 9839   1.100   1.261   4.382  0.0491  1.3469 -0.0161
 2459SOL    HW3 9840   1.042   1.252   4.243 -0.3761 -0.1114  0.2524
 2459SOL    MW4 9841   1.111   1.259   4.296 -0.2083  0.3608 -0.0238
 2460SOL     OW 9842   1.189   1.548   4.186 -0.4676  0.3767  0.6290
 2460SOL    HW2 9843   1.098   1.565   4.210 -0.8025 -1.3686  0.6401
 2460SOL    HW3 9844   1.202   1.455   4.204  0.9260  0.3010 -0.6378
 2460SOL    MW4 9845   1.179   1.538   4.192 -0.3281  0.1365  0.4635
 2461SOL     OW 9846   0.936   1.622   4.268 -0.2357  0.0125 -0.0855
 2461SOL    HW2 9847   0.918   1.619   4.362  0.4312  0.0781  0.0430
 2461SOL    HW3 9848   0.934   1.715   4.245 -1.9258 -0.0884 -0.4363
 2461SOL    MW4 9849   0.933   1.633   4.277 -0.3707  0.0079 -0.1149
 2462SOL     OW 9850   0.910   1.877   4.173  0.2044 -0.5714 -0.0535
 2462SOL    HW2 9851   0.843   1.920   4.226  1.5013 -0.2153  1.3180
 2462SOL    HW3 9852   0.898   1.913   4.085 -0.7005  0.3044  0.4279
 2462SOL    MW4 9853   0.900   1.887   4.168  0.2561 -0.4089  0.1912
 2463SOL     OW 9854   1.158   2.047   4.229  0.1662  0.3401  0.3321
 2463SOL    HW2 9855   1.149   2.060   4.323  2.2279  1.3659  0.4134
 2463SOL    HW3 9856   1.083   1.992   4.205 -1.0581  1.0677  2.3464
 2463SOL    MW4 9857   1.147   2.042   4.238  0.2767  0.5715  0.6089
 2464SOL     OW 9858   1.103   2.309   4.147 -0.2793 -0.0083 -0.1002
 2464SOL    HW2 9859   1.186   2.345   4.181 -0.8864  0.4051  0.9645
 2464SOL    HW3 9860   1.097   2.222   4.186 -1.0494  0.5234  0.9876
 2464SOL    MW4 9861   1.113   2.302   4.156 -0.4610  0.1166  0.1836
 2465SOL     OW 9862   0.886   2.458   4.234 -0.4944  0.0600 -0.3447
 2465SOL    HW2 9863   0.968   2.413   4.212 -0.7140  0.6819 -2.5340
 2465SOL    HW3 9864   0.818   2.392   4.219 -0.5670  0.1944 -0.6048
 2465SOL    MW4 9865   0.888   2.443   4.229 -0.5330  0.1597 -0.6676
 2466SOL     OW 9866   0.862   2.684   4.112  0.2280  0.0151 -0.2714
 2466SOL    HW2 9867   0.864   2.600   4.158  0.2777  0.5681  0.7716
 2466SOL    HW3 9868   0.786   2.729   4.149  0.1777  0.4017 -0.8548
 2466SOL    MW4 9869   0.853   2.679   4.123  0.2279  0.1390 -0.2108
 2467SOL     OW 9870   1.087   2.810   4.246 -0.0212  0.0704 -0.5807
 2467SOL    HW2 9871   1.094   2.894   4.202  0.1057 -0.6045 -1.8491
 2467SOL    HW3 9872   1.006   2.771   4.213 -0.4414 -0.0224  0.5134
 2467SOL    MW4 9873   1.077   2.816   4.236 -0.0600 -0.0312 -0.6037
 2468SOL     OW 9874   1.136   3.065   4.160  0.4098 -0.2697  0.5239
 2468SOL    HW2 9875   1.205   3.115   4.204  0.4057  0.4814 -0.3066
 2468SOL    HW3 9876   1.153   3.078   4.067 -0.0011 -1.2650  0.2997
 2468SOL    MW4 9877   1.147   3.073   4.154  0.3550 -0.3018  0.3848
 2469SOL     OW 9878   0.893   3.169   4.243  0.5557  0.7723  0.0211
 2469SOL    HW2 9879   0.886   3.122   4.327 -0.6246 -0.3751 -0.6900
 2469SOL    HW3 9880   0.969   3.130   4.201 -1.0778 -1.3599 -1.0504
 2469SOL    MW4 9881   0.902   3.157   4.249  0.1844  0.3397 -0.2136
 2470SOL     OW 9882   0.900   3.463   4.208 -0.3437 -0.4387  0.3732
 2470SOL    HW2 9883   0.905   3.369   4.224 -0.1839 -0.5115 -0.0980
 2470SOL    HW3 9884   0.886   3.471   4.114 -1.3835 -0.0168  0.5560
 2470SOL    MW4 9885   0.899   3.452   4.198 -0.4598 -0.3927  0.3352
 2471SOL     OW 9886   1.152   3.604   4.269 -0.1548  0.0123  0.0720
 2471SOL    HW2 9887   1.132   3.691   4.234 -0.8585  0.4110  1.4264
 2471SOL    HW3 9888   1.068   3.559   4.272  0.1793 -0.6477 -0.4439
 2471SOL    MW4 9889   1.138   3.609   4.265 -0.2035 -0.0224  0.1826
 2472SOL     OW 9890   1.118   3.861   4.161 -0.3011 -0.1763 -0.0077
 2472SOL    HW2 9891   1.199   3.898   4.195  0.4586 -0.6033 -1.3116
 2472SOL    HW3 9892   1.050   3.924   4.186  0.6179  0.8414 -0.0580
 2472SOL    MW4 9893   1.119   3.874   4.169 -0.0796 -0.0985 -0.1860
 2473SOL     OW 9894   0.896   4.029   4.246  0.2074  0.0180 -0.2194
 2473SOL    HW2 9895   0.900   4.111   4.197 -0.5798 -0.0741 -0.4493
 2473SOL    HW3 9896   0.824   3.980   4.205 -1.1451  0.3725  1.6783
 2473SOL    MW4 9897   0.887   4.033   4.234 -0.0749  0.0525  0.0005
 2474SOL     OW 9898   0.875   4.294   4.131  0.2360  0.3682 -0.3066
 2474SOL    HW2 9899   0.946   4.343   4.171 -0.2915  0.8216  0.0871
 2474SOL    HW3 9900   0.797   4.318   4.183  0.2474 -2.1615  0.9922
 2474SOL    MW4 9901   0.874   4.304   4.143  0.1679  0.0944 -0.0839
 2475SOL     OW 9902   1.098   4.428   4.260  0.4604 -0.2168  0.2838
 2475SOL    HW2 9903   1.094   4.403   4.352  0.9933 -0.1322  0.3356
 2475SOL    HW3 9904   1.182   4.393   4.229 -0.0316 -0.8362 -0.3512
 2475SOL    MW4 9905   1.109   4.420   4.268  0.4659 -0.2875  0.2065
 2476SOL     OW 9906   1.598   4.634   4.162 -0.2765  0.0761  0.0297
 2476SOL    HW2 9907   1.681   4.663   4.201  0.0133  0.2276 -0.6877
 2476SOL    HW3 9908   1.531   4.670   4.219  0.1536 -0.3249  0.8103
 2476SOL    MW4 9909   1.600   4.642   4.175 -0.1813  0.0429  0.0381
 2477SOL     OW 9910   1.377   0.081   4.264 -0.0690  0.1171  0.0312
 2477SOL    HW2 9911   1.372   0.074   4.359  1.0156 -1.5075 -0.0220
 2477SOL    HW3 9912   1.288   0.063   4.233 -0.5015  1.0009  0.7497
 2477SOL    MW4 9913   1.365   0.078   4.272  0.0169  0.0193  0.1192
 2478SOL     OW 9914   1.371   0.350   4.133 -0.2216  0.2500  0.1331
 2478SOL    HW2 9915   1.454   0.392   4.154  0.5441 -0.5848 -1.1998
 2478SOL    HW3 9916   1.377   0.264   4.174 -0.0267 -0.1784 -0.7922
 2478SOL    MW4 9917   1.383   0.344   4.141 -0.0947  0.0833 -0.1650
 2479SOL     OW 9918   1.576   0.495   4.261 -0.1091 -0.0012 -0.2639
 2479SOL    HW2 9919   1.584   0.505   4.356  0.4792 -0.2249 -0.2931
 2479SOL    HW3 9920   1.580   0.584   4.227  0.0402  0.0520 -0.1067
 2479SOL    MW4 9921   1.577   0.508   4.269 -0.0117 -0.0237 -0.2465
 2480SOL     OW 9922   1.572   0.757   4.167 -0.4788  0.3787  0.0528
 2480SOL    HW2 9923   1.649   0.801   4.204  0.3066 -1.1275  0.2599
 2480SOL    HW3 9924   1.583   0.766   4.072 -0.9150  1.6126  0.1177
 2480SOL    MW4 9925   1.584   0.764   4.159 -0.4327  0.3428  0.0887
 2481SOL     OW 9926   1.337   0.870   4.273 -0.2362 -0.5119 -0.0749
 2481SOL    HW2 9927   1.363   0.962   4.267 -2.1908 -0.0186 -1.5026
 2481SOL    HW3 9928   1.413   0.821   4.241 -0.3304  0.7958 -2.4096
 2481SOL    MW4 9929   1.351   0.875   4.268 -0.5065 -0.2743 -0.5713
 2482SOL     OW 9930   1.360   1.142   4.192  0.0584 -0.0854  0.6325
 2482SOL    HW2 9931   1.276   1.176   4.221 -0.1583  0.5654 -0.7283
 2482SOL    HW3 9932   1.360   1.154   4.098  1.7212  0.0108  0.6245
 2482SOL    MW4 9933   1.349   1.148   4.184  0.2491  0.0134  0.4520
 2483SOL     OW 9934   1.558   1.312   4.253  0.1334 -0.5673 -0.0447
 2483SOL    HW2 9935   1.546   1.337   4.345  0.4198 -1.1327  0.1553
 2483SOL    HW3 9936   1.486   1.251   4.235  0.8191 -1.4748  0.2046
 2483SOL    MW4 9937   1.547   1.307   4.263  0.2615 -0.7617  0.0148
 2484SOL     OW 9938   1.573   1.582   4.120 -0.3716  0.2882  0.1010
 2484SOL    HW2 9939   1.501   1.621   4.170 -0.1628  0.7079  0.0747
 2484SOL    HW3 9940   1.590   1.499   4.164 -0.5306  0.4221  0.4151
 2484SOL    MW4 9941   1.566   1.576   4.132 -0.3650  0.3612  0.1397
 2485SOL     OW 9942   1.383   1.736   4.257 -0.1629  0.4704  0.1022
 2485SOL    HW2 9943   1.381   1.807   4.193 -0.7549 -0.5321 -1.0147
 2485SOL    HW3 9944   1.305   1.684   4.238  0.2878 -0.5162  0.8658
 2485SOL    MW4 9945   1.372   1.738   4.246 -0.1814  0.2078  0.0553
 2486SOL     OW 9946   1.374   1.962   4.076 -0.4786 -0.0947 -0.2061
 2486SOL    HW2 9947   1.448   2.014   4.106 -0.7013  0.5952 -0.8602
 2486SOL    HW3 9948   1.299   1.996   4.125 -0.7960  0.8534 -1.3495
 2486SOL    MW4 9949   1.373   1.973   4.086 -0.5499  0.1212 -0.4430
 2487SOL     OW 9950   1.599   2.071   4.182 -0.2269  0.4165 -0.0766
 2487SOL    HW2 9951   1.561   2.053   4.268 -0.1884  1.8237  0.2397
 2487SOL    HW3 9952   1.586   2.165   4.168 -0.6302  0.1363 -1.8058
 2487SOL    MW4 9953   1.592   2.081   4.191 -0.2750  0.5655 -0.2627
 2488SOL     OW 9954   1.526   2.333   4.132  0.3450 -0.3551 -0.1723
 2488SOL    HW2 9955   1.600   2.389   4.155  0.1301 -0.0839 -0.1322
 2488SOL    HW3 9956   1.530   2.327   4.036  0.1117  0.0936 -0.2141
 2488SOL    MW4 9957   1.536   2.340   4.122  0.2860 -0.2601 -0.1721
 2489SOL     OW 9958   1.319   2.446   4.254  0.2421  0.2495  0.1377
 2489SOL    HW2 9959   1.320   2.538   4.228  1.3214  0.4371  0.8118
 2489SOL    HW3 9960   1.392   2.407   4.207  0.6940  0.0583  0.9994
 2489SOL    MW4 9961   1.328   2.453   4.244  0.4439  0.2494  0.3409
 2490SOL     OW 9962   1.329   2.702   4.159 -0.2222  0.1716  0.0643
 2490SOL    HW2 9963   1.404   2.748   4.196 -1.0225 -0.6376  2.8539
 2490SOL    HW3 9964   1.253   2.743   4.201 -1.1525 -0.9645 -0.4939
 2490SOL    MW4 9965   1.329   2.713   4.170 -0.4506 -0.0851  0.3586
 2491SOL     OW 9966   1.572   2.832   4.236 -0.1473  0.2552 -0.1222
 2491SOL    HW2 9967   1.573   2.848   4.330  1.3214 -0.0555 -0.0741
 2491SOL    HW3 9968   1.587   2.918   4.197  1.6555  0.0274  0.0020
 2491SOL    MW4 9969   1.574   2.845   4.243  0.2842  0.1841 -0.0997
 2492SOL     OW 9970   1.593   3.092   4.124 -0.2403 -0.5002 -0.0937
 2492SOL    HW2 9971   1.663   3.141   4.168 -0.1305 -0.6039 -0.1538
 2492SOL    HW3 9972   1.512   3.133   4.155 -0.1491 -0.2916 -0.1288
 2492SOL    MW4 9973   1.591   3.104   4.134 -0.2139 -0.4861 -0.1063
 2493SOL     OW 9974   1.361   3.215   4.245 -0.2407  0.3224  0.2973
 2493SOL    HW2 9975   1.388   3.224   4.336 -3.2215  2.5650  1.0040
 2493SOL    HW3 9976   1.358   3.304   4.211 -0.1519 -0.4123 -1.7444
 2493SOL    MW4 9977   1.364   3.228   4.253 -0.6224  0.5214  0.1211
 2494SOL     OW 9978   1.354   3.469   4.125 -0.0801  0.9717 -0.5397
 2494SOL    HW2 9979   1.285   3.523   4.164  0.1836  2.6045 -2.2439
 2494SOL    HW3 9980   1.337   3.473   4.030  1.7433  0.5455 -0.9118
 2494SOL    MW4 9981   1.343   3.477   4.117  0.1953  1.1311 -0.8135
 2495SOL     OW 9982   1.587   3.576   4.239  0.7332  0.0139  0.1675
 2495SOL    HW2 9983   1.556   3.562   4.329  1.4168 -1.2419  0.2237
 2495SOL    HW3 9984   1.516   3.545   4.184  0.5148  0.3236  0.2714
 2495SOL    MW4 9985   1.574   3.570   4.244  0.7945 -0.1111  0.1888
 2496SOL     OW 9986   1.630   3.835   4.134  0.0684  0.7706  0.2319
 2496SOL    HW2 9987   1.560   3.899   4.148  0.4073  1.0720  0.5503
 2496SOL    HW3 9988   1.599   3.756   4.177 -0.7054  0.4786 -0.8442
 2496SOL    MW4 9989   1.617   3.833   4.141  0.0110  0.7718  0.1316
 2497SOL     OW 9990   1.375   4.010   4.189 -0.0999 -0.2824 -0.0730
 2497SOL    HW2 9991   1.365   4.026   4.283 -1.9392 -2.4860  0.1377
 2497SOL    HW3 9992   1.347   4.092   4.148  0.7136  0.6947  1.2722
 2497SOL    MW4 9993   1.370   4.023   4.196 -0.2352 -0.4444  0.1321
 2498SOL     OW 9994   1.331   4.300   4.164  0.0678 -0.0511 -0.3463
 2498SOL    HW2 9995   1.407   4.341   4.204  0.6115  0.2475 -1.6373
 2498SOL    HW3 9996   1.343   4.316   4.070 -2.4224  1.4492 -0.4532
 2498SOL    MW4 9997   1.343   4.307   4.157 -0.1889  0.1864 -0.5307
 2499SOL     OW 9998   1.574   4.367   4.267  0.1723 -0.1667 -0.7708
 2499SOL    HW2 9999   1.608   4.446   4.226 -0.7091 -1.2209 -3.6796
 2499SOL    HW310000   1.639   4.300   4.246  1.0040 -0.2296  1.8263
 2499SOL    MW410001   1.587   4.369   4.259  0.1658 -0.3133 -0.8116
 2500SOL     OW10002   2.028   4.643   4.189  0.0002  0.6495 -0.4549
 2500SOL    HW210003   1.943   4.671   4.224 -0.0774  1.4461 -1.2825
 2500SOL    HW310004   2.023   4.661   4.095  0.0509 -1.8819 -0.9751
 2500SOL    MW410005   2.016   4.649   4.182 -0.0033  0.4206 -0.6328
 2501SOL     OW10006   1.801   0.085   4.280 -0.1547  0.2433  0.1330
 2501SOL    HW210007   1.772   0.091   4.371 -2.5358  0.0296 -0.6027
 2501SOL    HW310008   1.808   0.176   4.251 -0.2287  0.2885  0.2559
 2501SOL    MW410009   1.798   0.097   4.289 -0.4786  0.2210  0.0525
 2502SOL     OW10010   1.829   0.337   4.194 -0.5343 -0.0061  0.3642
 2502SOL    HW210011   1.903   0.391   4.224 -1.6958  1.7471  0.1213
 2502SOL    HW310012   1.752   0.381   4.229 -1.6775  0.0134 -2.0800
 2502SOL    MW410013   1.829   0.350   4.202 -0.8385  0.2278  0.0095
 2503SOL     OW10014   2.037   0.500   4.259 -0.6303  0.0956  0.1272
 2503SOL    HW210015   2.045   0.499   4.355 -0.2793  1.7913  0.1252
 2503SOL    HW310016   2.121   0.465   4.228 -0.3700  0.4592  0.4166
 2503SOL    MW410017   2.049   0.495   4.268 -0.5496  0.3674  0.1650
 2504SOL     OW10018   1.992   0.746   4.135 -0.1041 -0.0264 -0.2865
 2504SOL    HW210019   2.078   0.762   4.175 -0.0850  0.3698 -0.4804
 2504SOL    HW310020   1.973   0.654   4.154  0.6122 -0.2682 -0.7069
 2504SOL    MW410021   2.001   0.736   4.143 -0.0072 -0.0061 -0.3676
 2505SOL     OW10022   1.796   0.881   4.283 -0.3757  0.2635 -0.7156
 2505SOL    HW210023   1.805   0.976   4.276  0.4795  0.2015 -0.4721
 2505SOL    HW310024   1.860   0.847   4.221 -0.5557 -0.1538 -0.6672
 2505SOL    MW410025   1.805   0.889   4.274 -0.2868  0.2002 -0.6766
 2506SOL     OW10026   1.799   1.161   4.233  0.3343  0.1059  0.1861
 2506SOL    HW210027   1.873   1.216   4.259  1.1215 -1.0504  0.4527
 2506SOL    HW310028   1.724   1.221   4.231  1.3583  1.3946 -0.5528
 2506SOL    MW410029   1.799   1.176   4.236  0.5733  0.1233  0.1235
 2507SOL     OW10030   2.025   1.293   4.276 -0.2071  0.6436 -0.2816
 2507SOL    HW210031   2.090   1.255   4.217 -1.3089 -0.5024 -0.7874
 2507SOL    HW310032   2.023   1.386   4.254  0.1579  0.4078 -1.3222
 2507SOL    MW410033   2.033   1.300   4.265 -0.3045  0.4612 -0.4854
 2508SOL     OW10034   2.013   1.562   4.170  0.0753 -0.1798  0.5701
 2508SOL    HW210035   2.090   1.606   4.204 -0.0268  1.3803 -1.1547
 2508SOL    HW310036   2.038   1.533   4.082 -1.2496  0.2692  0.0234
 2508SOL    MW410037   2.026   1.564   4.163 -0.1128  0.0852  0.2699
 2509SOL     OW10038   1.790   1.668   4.273  0.4014 -0.0083 -0.1055
 2509SOL    HW210039   1.870   1.637   4.230  1.1081 -0.5026  1.5566
 2509SOL    HW310040   1.720   1.638   4.216  1.2328 -2.3326  0.0559
 2509SOL    MW410041   1.791   1.660   4.260  0.6043 -0.3802  0.1345
 2510SOL     OW10042   1.825   1.904   4.143 -0.1298  0.1942 -0.2550
 2510SOL    HW210043   1.809   1.825   4.195  0.0106  0.3187 -0.0270
 2510SOL    HW310044   1.750   1.961   4.161  0.6873  0.8896  1.0200
 2510SOL    MW410045   1.813   1.901   4.152 -0.0033  0.3023 -0.0567
 2511SOL     OW10046   2.050   2.041   4.245  0.0427  0.9276 -0.3036
 2511SOL    HW210047   2.125   2.016   4.192  0.7784  0.5208  0.8991
 2511SOL    HW310048   1.976   1.996   4.206  0.5331  0.8194 -1.1124
 2511SOL    MW410049   2.050   2.032   4.233  0.2043  0.8595 -0.2513
 2512SOL     OW10050   2.003   2.317   4.188  0.0775 -0.3056 -0.2603
 2512SOL    HW210051   2.027   2.227   4.210  0.4934 -0.0206  0.4612
 2512SOL    HW310052   1.996   2.318   4.093  1.1501 -0.8270 -0.3433
 2512SOL    MW410053   2.005   2.305   4.178  0.2742 -0.3369 -0.1764
 2513SOL     OW10054   1.767   2.445   4.230 -0.5101  0.0049 -0.3585
 2513SOL    HW210055   1.738   2.448   4.321 -0.6127  1.5574 -0.4242
 2513SOL    HW310056   1.845   2.391   4.231  1.8340  3.2359  1.3416
 2513SOL    MW410057   1.773   2.438   4.242 -0.2145  0.6359 -0.1431
 2514SOL     OW10058   1.800   2.712   4.142 -0.2851  0.1217  0.6172
 2514SOL    HW210059   1.794   2.620   4.169 -1.7264 -0.1584 -0.5951
 2514SOL    HW310060   1.718   2.752   4.174 -1.0497  0.2678 -1.4276
 2514SOL    MW410061   1.788   2.705   4.150 -0.5761  0.1042  0.1869
 2515SOL     OW10062   1.983   2.891   4.246 -0.3831  0.3182 -0.4922
 2515SOL    HW210063   1.996   2.889   4.341 -1.5364 -0.3332 -0.3453
 2515SOL    HW310064   1.916   2.824   4.229  0.7945 -0.5418 -1.9115
 2515SOL    MW410065   1.976   2.882   4.256 -0.3798  0.1187 -0.6604
 2516SOL     OW10066   2.036   3.115   4.090 -0.3066 -0.3021 -0.1281
 2516SOL    HW210067   2.000   3.040   4.137 -1.1153  0.4913  0.5165
 2516SOL    HW310068   2.033   3.088   3.998  0.7923 -1.6393  0.2161
 2516SOL    MW410069   2.031   3.101   4.084 -0.2680 -0.3738  0.0019
 2517SOL     OW10070   1.803   3.233   4.205  0.8516  0.4099 -0.0235
 2517SOL    HW210071   1.810   3.320   4.167 -0.2920  0.3142 -0.4912
 2517SOL    HW310072   1.875   3.183   4.165 -0.8618  0.0550 -2.8354
 2517SOL    MW410073   1.813   3.238   4.195  0.4747  0.3505 -0.4563
 2518SOL     OW10074   1.837   3.489   4.134  0.2016  0.0185 -0.0777
 2518SOL    HW210075   1.751   3.522   4.163  0.0917 -0.1589 -0.1992
 2518SOL    HW310076   1.830   3.486   4.039  0.6950  0.9713 -0.1569
 2518SOL    MW410077   1.824   3.493   4.125  0.2521  0.1206 -0.1040
 2519SOL     OW10078   2.101   3.615   4.181  0.2976 -0.4174  0.0761
 2519SOL    HW210079   2.078   3.706   4.199  0.0368 -0.0466 -2.0425
 2519SOL    HW310080   2.017   3.573   4.161  0.6235 -0.7151 -0.6807
 2519SOL    MW410081   2.087   3.621   4.181  0.3061 -0.4077 -0.3028
 2520SOL     OW10082   2.106   3.892   4.224  0.1385 -0.0841 -0.1541
 2520SOL    HW210083   2.018   3.901   4.262 -0.4340  0.5579 -1.5660
 2520SOL    HW310084   2.092   3.903   4.130  2.0330  2.4105 -0.2120
 2520SOL    MW410085   2.092   3.895   4.217  0.3130  0.3300 -0.3481
 2521SOL     OW10086   1.844   3.928   4.285  0.2644  0.1356  0.1284
 2521SOL    HW210087   1.799   4.003   4.247  0.8216 -0.3941 -1.6493
 2521SOL    HW310088   1.809   3.853   4.237  0.5340 -0.6218  1.1036
 2521SOL    MW410089   1.834   3.928   4.274  0.3735 -0.0343  0.0224
 2522SOL     OW10090   1.794   4.222   4.194 -0.1715  0.2066  0.3762
 2522SOL    HW210091   1.881   4.256   4.216  0.2043 -0.2824 -0.3459
 2522SOL    HW310092   1.796   4.209   4.099 -0.4685 -1.3813  0.5707
 2522SOL    MW410093   1.806   4.225   4.184 -0.1611 -0.0668  0.3061
 2523SOL     OW10094   2.043   4.367   4.242  0.5276 -0.1704 -0.3343
 2523SOL    HW210095   2.041   4.388   4.336  0.5904 -2.2707  0.1684
 2523SOL    HW310096   2.060   4.450   4.199  1.4764  0.6709  1.6011
 2523SOL    MW410097   2.045   4.380   4.249  0.6609 -0.3362 -0.0119
 2524SOL     OW10098   2.425   0.005   4.137 -0.6355 -0.0542  0.0444
 2524SOL    HW210099   2.501   0.048   4.177  0.6027 -0.3046 -1.9906
 2524SOL    HW310100   2.430  -0.085   4.169  0.1855 -0.1869 -0.4413
 2524SOL    MW410101   2.436  -0.001   4.147 -0.3641 -0.1048 -0.2885
 2525SOL     OW10102   2.255   0.151   4.262  0.1772 -0.1119  0.2295
 2525SOL    HW210103   2.316   0.094   4.215  0.0701 -2.1160  2.4401
 2525SOL    HW310104   2.169   0.110   4.248  0.0976 -0.5243  1.8023
 2525SOL    MW410105   2.252   0.138   4.254  0.1528 -0.4307  0.7286
 2526SOL     OW10106   2.285   0.415   4.172  0.0837  0.2822 -0.1311
 2526SOL    HW210107   2.281   0.325   4.205 -0.1133  0.3618  0.0686
 2526SOL    HW310108   2.274   0.406   4.077 -0.8213  0.1570 -0.0235
 2526SOL    MW410109   2.283   0.402   4.164 -0.0615  0.2762 -0.0906
 2527SOL     OW10110   2.527   0.532   4.237 -0.0008 -0.5571 -0.1330
 2527SOL    HW210111   2.565   0.492   4.315  0.9036  0.5821  0.0367
 2527SOL    HW310112   2.438   0.497   4.232  0.1857 -1.2161  0.9792
 2527SOL    MW410113   2.520   0.522   4.246  0.1433 -0.4938  0.0358
 2528SOL     OW10114   2.510   0.811   4.126  0.3294 -0.1969  0.2035
 2528SOL    HW210115   2.507   0.719   4.154 -0.9120  0.0056  0.7983
 2528SOL    HW310116   2.493   0.808   4.032 -2.3485 -0.4241  0.6455
 2528SOL    MW410117   2.507   0.798   4.117 -0.1879 -0.2001  0.3400
 2529SOL     OW10118   2.243   0.877   4.208 -0.0700  0.1058 -0.2806
 2529SOL    HW210119   2.237   0.888   4.303 -0.7777 -1.4383 -0.1371
 2529SOL    HW310120   2.335   0.861   4.191  0.2843  1.7693 -0.0177
 2529SOL    MW410121   2.254   0.877   4.218 -0.1168  0.1215 -0.2270
 2530SOL     OW10122   2.205   1.148   4.115  0.1062 -0.0206 -0.4052
 2530SOL    HW210123   2.272   1.204   4.152 -1.1814  0.6215  1.0171
 2530SOL    HW310124   2.225   1.060   4.147 -0.7827  0.4718  1.5359
 2530SOL    MW410125   2.216   1.144   4.124 -0.1812  0.1290  0.0386
 2531SOL     OW10126   2.428   1.292   4.248  0.4179 -0.5994 -0.1942
 2531SOL    HW210127   2.451   1.307   4.340  1.3039 -0.2172 -0.4712
 2531SOL    HW310128   2.509   1.263   4.207 -0.1457 -1.4613 -0.7091
 2531SOL    MW410129   2.442   1.290   4.255  0.4609 -0.6627 -0.2990
 2532SOL     OW10130   2.446   1.567   4.169  0.2811 -0.0749  0.7966
 2532SOL    HW210131   2.444   1.472   4.182 -0.0721  0.1493  2.5662
 2532SOL    HW310132   2.440   1.578   4.074 -1.5764 -1.7746  0.6696
 2532SOL    MW410133   2.445   1.556   4.158 -0.0107 -0.2695  1.0128
 2533SOL     OW10134   2.233   1.677   4.281 -0.0010 -0.7220 -0.3805
 2533SOL    HW210135   2.244   1.702   4.373  0.5584  0.1642 -0.6859
 2533SOL    HW310136   2.320   1.650   4.253  1.0423  3.9113 -2.0877
 2533SOL    MW410137   2.246   1.677   4.290  0.2105  0.0063 -0.6461
 2534SOL     OW10138   2.258   1.910   4.116  0.0012  0.3813 -0.3965
 2534SOL    HW210139   2.332   1.961   4.149 -0.5586  1.5635 -0.9703
 2534SOL    HW310140   2.253   1.835   4.176  1.1112  0.7442  0.1715
 2534SOL    MW410141   2.267   1.907   4.128  0.0739  0.5851 -0.3967
 2535SOL     OW10142   2.445   2.076   4.251 -0.2431 -0.3725 -0.5194
 2535SOL    HW210143   2.455   2.065   4.345  0.7610  0.8861 -0.4703
 2535SOL    HW310144   2.530   2.053   4.215  0.2260  1.7506 -0.8682
 2535SOL    MW410145   2.457   2.072   4.258 -0.0491  0.0737 -0.5589
 2536SOL     OW10146   2.441   2.335   4.164 -0.0374 -0.0799  0.3141
 2536SOL    HW210147   2.430   2.242   4.186  0.4654 -0.4284 -0.8500
 2536SOL    HW310148   2.449   2.336   4.068  1.4996  1.0017  0.4322
 2536SOL    MW410149   2.441   2.323   4.154  0.2317  0.0172  0.1764
 2537SOL     OW10150   2.222   2.486   4.250  0.2755 -0.4546 -0.3278
 2537SOL    HW210151   2.298   2.430   4.233  0.1486 -0.6263 -0.3313
 2537SOL    HW310152   2.149   2.441   4.208  0.4033  0.3925 -1.4881
 2537SOL    MW410153   2.222   2.473   4.242  0.2759 -0.3655 -0.4816
 2538SOL     OW10154   2.233   2.741   4.152  0.2080  0.3428  0.4466
 2538SOL    HW210155   2.225   2.649   4.177 -0.4039  0.5926  1.1852
 2538SOL    HW310156   2.162   2.785   4.198 -0.0832  1.0408 -0.6610
 2538SOL    MW410157   2.223   2.734   4.161  0.0887  0.4675  0.3982
 2539SOL     OW10158   2.488   2.845   4.213  0.5221 -0.6184  0.1537
 2539SOL    HW210159   2.487   2.858   4.308  0.8069 -1.2927  0.2496
 2539SOL    HW310160   2.400   2.816   4.191  0.2148  0.3300  0.0953
 2539SOL    MW410161   2.476   2.843   4.222  0.5193 -0.5822  0.1578
 2540SOL     OW10162   2.537   3.092   4.108  0.1958  0.0034  0.5209
 2540SOL    HW210163   2.452   3.125   4.138 -0.3116 -1.1633  0.3681
 2540SOL    HW310164   2.539   3.001   4.136  1.3424 -0.0088  0.3972
 2540SOL    MW410165   2.526   3.085   4.116  0.2801 -0.1521  0.4845
 2541SOL     OW10166   2.286   3.184   4.168 -0.0770 -0.0584 -0.3753
 2541SOL    HW210167   2.285   3.268   4.123 -0.6344 -0.4656 -1.1249
 2541SOL    HW310168   2.208   3.138   4.137  0.7215 -1.2283 -0.7091
 2541SOL    MW410169   2.276   3.189   4.158 -0.0451 -0.2668 -0.5183
 2542SOL     OW10170   2.307   3.471   4.073  0.2670  0.0908 -0.1276
 2542SOL    HW210171   2.383   3.515   4.112 -0.4185 -0.0686  1.4363
 2542SOL    HW310172   2.233   3.526   4.096 -0.2118 -0.2497 -0.8364
 2542SOL    MW410173   2.308   3.484   4.081  0.1135  0.0250 -0.0148
 2543SOL     OW10174   2.507   3.600   4.215  0.0696  0.1074  0.3365
 2543SOL    HW210175   2.482   3.593   4.307 -2.1864  0.9302 -0.1841
 2543SOL    HW310176   2.500   3.693   4.195 -1.2540 -0.2746 -1.1271
 2543SOL    MW410177   2.503   3.611   4.225 -0.4027  0.1655  0.0749
 2544SOL     OW10178   2.503   3.866   4.132 -0.3610 -0.0486  0.5404
 2544SOL    HW210179   2.570   3.924   4.167 -0.0704 -0.5343  0.8063
 2544SOL    HW310180   2.496   3.890   4.040  1.2778 -1.0090  0.1380
 2544SOL    MW410181   2.511   3.877   4.125 -0.1063 -0.2396  0.5226
 2545SOL     OW10182   2.341   4.032   4.284 -0.1932  0.4063  0.1301
 2545SOL    HW210183   2.406   3.982   4.235 -1.0892  0.9692 -1.6774
 2545SOL    HW310184   2.262   3.978   4.281 -0.0330  0.0625  1.6895
 2545SOL    MW410185   2.339   4.018   4.278 -0.2902  0.4358  0.0973
 2546SOL     OW10186   2.271   4.256   4.143 -0.7209  0.4928 -0.3792
 2546SOL    HW210187   2.303   4.182   4.193 -0.5955  0.3189 -0.7204
 2546SOL    HW310188   2.178   4.262   4.165 -0.5872  0.6365  0.1486
 2546SOL    MW410189   2.263   4.247   4.152 -0.6869  0.4888 -0.3543
 2547SOL     OW10190   2.450   4.429   4.272 -0.1102 -0.4421 -0.0498
 2547SOL    HW210191   2.538   4.399   4.249  0.6717  1.9052 -0.1651
 2547SOL    HW310192   2.392   4.368   4.226  1.4376 -1.7344 -0.3405
 2547SOL    MW410193   2.454   4.417   4.263  0.1974 -0.3033 -0.1030
 2548SOL     OW10194   2.914   0.038   4.144 -0.2651 -0.0829 -0.1410
 2548SOL    HW210195   2.983   0.090   4.183 -0.9908 -1.2233  2.7520
 2548SOL    HW310196   2.937  -0.053   4.166 -1.4284 -0.6497 -1.1887
 2548SOL    MW410197   2.926   0.033   4.152 -0.5143 -0.3081  0.1025
 2549SOL     OW10198   2.667   0.172   4.222  0.0369  0.1162 -0.1479
 2549SOL    HW210199   2.672   0.263   4.192 -0.4681 -0.2932 -1.5182
 2549SOL    HW310200   2.754   0.135   4.205  0.1575  0.2537  0.1567
 2549SOL    MW410201   2.679   0.179   4.216 -0.0138  0.0803 -0.2885
 2550SOL     OW10202   2.718   0.416   4.094  0.3468 -0.0815 -0.0814
 2550SOL    HW210203   2.648   0.459   4.143  0.4400  0.0123 -0.0276
 2550SOL    HW310204   2.691   0.422   4.002  0.6887  0.7304 -0.1416
 2550SOL    MW410205   2.705   0.423   4.088  0.4044  0.0380 -0.0825
 2551SOL     OW10206   2.955   0.528   4.201 -0.4896 -0.0080  0.5310
 2551SOL    HW210207   2.957   0.621   4.176  0.8263 -0.5112 -1.3694
 2551SOL    HW310208   2.884   0.491   4.149 -0.3891 -0.2387  0.5581
 2551SOL    MW410209   2.946   0.536   4.191 -0.3028 -0.1048  0.2837
 2552SOL     OW10210   2.936   0.789   4.146  0.3235 -0.2416 -0.0702
 2552SOL    HW210211   3.025   0.821   4.161  0.8524 -1.5376 -0.4184
 2552SOL    HW310212   2.928   0.783   4.051 -0.2675  0.2284 -0.0514
 2552SOL    MW410213   2.947   0.793   4.136  0.3152 -0.3507 -0.1135
 2553SOL     OW10214   2.713   0.954   4.231  0.0012  0.4354 -0.3238
 2553SOL    HW210215   2.795   0.907   4.219 -0.1012  0.0615  0.3614
 2553SOL    HW310216   2.645   0.894   4.201 -0.0278  0.6978 -0.7799
 2553SOL    MW410217   2.715   0.940   4.226 -0.0160  0.4207 -0.2942
 2554SOL     OW10218   2.670   1.214   4.152  0.2519 -0.1003 -0.3947
 2554SOL    HW210219   2.653   1.125   4.180 -0.2262  0.3091  0.6157
 2554SOL    HW310220   2.681   1.207   4.057 -0.0522 -1.1868 -0.3566
 2554SOL    MW410221   2.670   1.201   4.143  0.1488 -0.1895 -0.2565
 2555SOL     OW10222   2.931   1.328   4.196  0.3841 -0.2708 -0.5602
 2555SOL    HW210223   2.994   1.260   4.176  0.7548 -0.2874  0.6493
 2555SOL    HW310224   2.846   1.286   4.185  0.5943 -0.5620 -1.0757
 2555SOL    MW410225   2.928   1.314   4.192  0.4611 -0.3113 -0.4687
 2556SOL     OW10226   2.932   1.596   4.138  0.0745  0.0640  0.0265
 2556SOL    HW210227   3.012   1.642   4.162  0.7462 -1.6333  1.1041
 2556SOL    HW310228   2.949   1.505   4.161 -1.9570 -0.4040 -0.2657
 2556SOL    MW410229   2.945   1.590   4.144 -0.1049 -0.2217  0.1302
 2557SOL     OW10230   2.690   1.695   4.227 -0.0337 -0.4554  0.3978
 2557SOL    HW210231   2.758   1.633   4.200  0.7950  0.5202  0.2072
 2557SOL    HW310232   2.608   1.646   4.219  0.5312 -1.2571 -0.5437
 2557SOL    MW410233   2.688   1.680   4.223  0.1504 -0.4325  0.2484
 2558SOL     OW10234   2.693   1.968   4.131 -0.2738 -0.5867  0.0891
 2558SOL    HW210235   2.684   1.884   4.176  0.2404 -0.0867  1.1484
 2558SOL    HW310236   2.691   1.946   4.038  2.2963 -2.0597  0.3293
 2558SOL    MW410237   2.691   1.954   4.125  0.1333 -0.7150  0.2608
 2559SOL     OW10238   2.928   2.076   4.249  0.3219 -0.1290  0.2137
 2559SOL    HW210239   2.944   2.158   4.202  0.8933 -1.6783 -2.4414
 2559SOL    HW310240   2.852   2.038   4.204  0.4598 -1.3499  0.9987
 2559SOL    MW410241   2.920   2.082   4.237  0.4156 -0.4945 -0.0329
 2560SOL     OW10242   2.945   2.318   4.134  0.1947  0.0573  0.4261
 2560SOL    HW210243   2.996   2.383   4.182 -0.4742  0.8579  0.0580
 2560SOL    HW310244   2.854   2.342   4.150 -0.0837 -1.3884  1.1115
 2560SOL    MW410245   2.939   2.330   4.143  0.0696 -0.0279  0.4683
 2561SOL     OW10246   2.697   2.445   4.201  0.0476 -0.1212 -0.3300
 2561SOL    HW210247   2.724   2.455   4.293 -0.2059 -1.5553 -0.0925
 2561SOL    HW310248   2.609   2.408   4.206  0.4983 -1.3255 -1.1710
 2561SOL    MW410249   2.689   2.441   4.214  0.0737 -0.4690 -0.4091
 2562SOL     OW10250   2.693   2.703   4.088 -0.1227 -0.1004 -0.2468
 2562SOL    HW210251   2.699   2.619   4.134  0.1246 -0.5498 -1.0987
 2562SOL    HW310252   2.623   2.750   4.134  0.3958 -0.3745  0.8521
 2562SOL    MW410253   2.685   2.698   4.100 -0.0215 -0.1957 -0.2141
 2563SOL     OW10254   2.876   2.847   4.231 -0.4943  0.0774  0.0532
 2563SOL    HW210255   2.863   2.825   4.323 -1.3864  0.1352 -0.0534
 2563SOL    HW310256   2.809   2.796   4.184 -0.8396  0.9727 -0.4442
 2563SOL    MW410257   2.865   2.837   4.237 -0.6573  0.2034 -0.0262
 2564SOL     OW10258   2.936   3.107   4.148 -0.0278 -0.6188  0.2445
 2564SOL    HW210259   2.904   3.018   4.165 -2.1229 -0.1186 -0.9112
 2564SOL    HW310260   2.944   3.112   4.053  0.7656  0.2058  0.3473
 2564SOL    MW410261   2.933   3.096   4.137 -0.1993 -0.4442  0.1049
 2565SOL     OW10262   2.726   3.211   4.296 -0.1180  0.0315  0.2938
 2565SOL    HW210263   2.807   3.179   4.255 -0.1175 -1.1348  1.1655
 2565SOL    HW310264   2.657   3.186   4.235 -0.0973 -1.5098  0.8872
 2565SOL    MW410265   2.728   3.203   4.282 -0.1154 -0.3257  0.4873
 2566SOL     OW10266   2.766   3.470   4.147 -0.7998 -0.5457  0.1107
 2566SOL    HW210267   2.767   3.394   4.205  0.0731 -1.4906 -1.1166
 2566SOL    HW310268   2.684   3.516   4.168 -0.6608 -1.0611  1.8193
 2566SOL    MW410269   2.755   3.466   4.157 -0.6661 -0.7384  0.1740
 2567SOL     OW10270   2.939   3.666   4.235 -0.1061  0.1483  0.1929
 2567SOL    HW210271   2.921   3.675   4.329 -1.0102  1.3208 -0.0727
 2567SOL    HW310272   2.880   3.596   4.206  1.1654 -1.1720  0.7506
 2567SOL    MW410273   2.929   3.658   4.244 -0.0577  0.1287  0.2317
 2568SOL     OW10274   2.949   3.917   4.114  0.3357  0.2762  0.1601
 2568SOL    HW210275   3.029   3.946   4.157  1.0155  0.6127 -1.2847
 2568SOL    HW310276   2.938   3.827   4.143  0.9301  0.4084  0.8158
 2568SOL    MW410277   2.958   3.909   4.124  0.5035  0.3381  0.0563
 2569SOL     OW10278   2.728   4.027   4.233 -0.2941  0.6034 -0.0217
 2569SOL    HW210279   2.735   4.123   4.238 -0.7337  0.5888  1.0023
 2569SOL    HW310280   2.814   3.998   4.203  0.3108  1.2244  1.0780
 2569SOL    MW410281   2.740   4.036   4.230 -0.2725  0.6833  0.2584
 2570SOL     OW10282   2.696   4.298   4.196 -0.4109 -0.2878 -0.2358
 2570SOL    HW210283   2.787   4.324   4.208 -0.7484  0.0971  1.6423
 2570SOL    HW310284   2.689   4.277   4.103  1.0307  1.9030 -0.8681
 2570SOL    MW410285   2.707   4.299   4.185 -0.2654  0.0515 -0.0715
 2571SOL     OW10286   2.957   4.431   4.249 -0.6307  0.0971  0.1752
 2571SOL    HW210287   2.950   4.436   4.344  0.7590 -1.0120  0.3467
 2571SOL    HW310288   3.030   4.372   4.233 -0.0672  1.2143 -1.5817
 2571SOL    MW410289   2.966   4.424   4.259 -0.3731  0.0987 -0.0343
 2572SOL     OW10290   3.387   0.032   4.212  0.6720 -0.0171 -0.1107
 2572SOL    HW210291   3.471   0.061   4.246  0.8727 -1.2859  0.5313
 2572SOL    HW310292   3.393  -0.064   4.213 -1.4904 -0.1691  1.7621
 2572SOL    MW410293   3.399   0.023   4.216  0.4132 -0.2046  0.2208
 2573SOL     OW10294   3.142   0.167   4.235 -0.4755 -0.6047  0.3200
 2573SOL    HW210295   3.131   0.179   4.330  2.4813  0.0902  0.6439
 2573SOL    HW310296   3.228   0.125   4.227 -0.6340 -0.5158 -2.0739
 2573SOL    MW410297   3.152   0.163   4.247 -0.1061 -0.5013  0.0463
 2574SOL     OW10298   3.193   0.416   4.122  0.1551 -0.3312  0.4900
 2574SOL    HW210299   3.178   0.333   4.167 -1.6432 -0.1222  0.3087
 2574SOL    HW310300   3.114   0.468   4.140  0.6083  0.7766 -0.6206
 2574SOL    MW410301   3.180   0.412   4.130 -0.0222 -0.1575  0.3195
 2575SOL     OW10302   3.419   0.587   4.192  0.3680  0.0193 -0.0287
 2575SOL    HW210303   3.495   0.530   4.180  0.0163 -0.7597  1.3063
 2575SOL    HW310304   3.345   0.533   4.165  0.1169  0.1173  0.4579
 2575SOL    MW410305   3.420   0.572   4.187  0.2882 -0.0706  0.2112
 2576SOL     OW10306   3.400   0.842   4.066  0.0946 -0.2954 -0.3188
 2576SOL    HW210307   3.323   0.877   4.112  0.2342 -0.3424 -0.0448
 2576SOL    HW310308   3.416   0.757   4.107  0.7890  0.0744  0.2048
 2576SOL    MW410309   3.392   0.836   4.078  0.2046 -0.2528 -0.2136
 2577SOL     OW10310   3.185   0.916   4.213 -0.9468 -0.2561  0.1980
 2577SOL    HW210311   3.179   0.916   4.309 -0.2932 -1.2981  0.2562
 2577SOL    HW310312   3.149   1.000   4.186  0.1317  0.6260  1.4410
 2577SOL    MW410313   3.179   0.927   4.222 -0.7184 -0.2773  0.3695
 2578SOL     OW10314   3.139   1.156   4.098 -0.2506 -0.6414  0.3774
 2578SOL    HW210315   3.216   1.196   4.137 -1.4829  1.8811  0.3529
 2578SOL    HW310316   3.154   1.163   4.004 -1.5395  2.1542  0.3106
 2578SOL    MW410317   3.151   1.162   4.091 -0.5832  0.0603  0.3653
 2579SOL     OW10318   3.388   1.271   4.239  0.2505  0.6009  0.2086
 2579SOL    HW210319   3.399   1.280   4.334  2.0768 -0.6796  0.1368
 2579SOL    HW310320   3.382   1.361   4.207 -1.0259  1.0323  1.5985
 2579SOL    MW410321   3.389   1.284   4.248  0.3231  0.4889  0.3824
 2580SOL     OW10322   3.402   1.544   4.141  0.3954  0.5240  0.2327
 2580SOL    HW210323   3.325   1.602   4.146  0.1415  0.1975  0.1297
 2580SOL    HW310324   3.421   1.539   4.047 -1.2271 -1.7038 -0.0227
 2580SOL    MW410325   3.394   1.551   4.129  0.1476  0.1869  0.1855
 2581SOL     OW10326   3.178   1.695   4.203  0.0825 -0.0586  0.1822
 2581SOL    HW210327   3.192   1.709   4.297  1.8557 -0.7906  0.0541
 2581SOL    HW310328   3.144   1.779   4.171 -1.9245 -0.2536  1.7198
 2581SOL    MW410329   3.175   1.708   4.212  0.0515 -0.1810  0.3686
 2582SOL     OW10330   3.125   1.946   4.094 -0.0508 -0.3391 -0.0175
 2582SOL    HW210331   3.204   1.989   4.129 -0.1056 -1.4988  1.5600
 2582SOL    HW310332   3.054   1.979   4.148 -0.9748  2.1013 -2.5804
 2582SOL    MW410333   3.126   1.956   4.106 -0.1802 -0.1702 -0.1478
 2583SOL     OW10334   3.328   2.036   4.259  0.1793  0.3673  0.9591
 2583SOL    HW210335   3.400   1.995   4.211  1.7272 -0.1201  3.6216
 2583SOL    HW310336   3.325   2.126   4.227  0.0670 -0.3728 -1.2294
 2583SOL    MW410337   3.337   2.042   4.248  0.3686  0.2053  1.0214
 2584SOL     OW10338   3.362   2.313   4.177  0.0168  0.0065 -0.1703
 2584SOL    HW210339   3.446   2.352   4.198  0.3026 -0.9411  0.5076
 2584SOL    HW310340   3.360   2.310   4.082  1.4239 -1.3454 -0.1840
 2584SOL    MW410341   3.373   2.318   4.167  0.2401 -0.2971 -0.0820
 2585SOL     OW10342   3.158   2.487   4.254 -0.3549  0.3879  0.1367
 2585SOL    HW210343   3.143   2.575   4.219 -0.3306 -0.1175 -1.1327
 2585SOL    HW310344   3.234   2.454   4.206  0.1006 -0.0421  1.1406
 2585SOL    MW410345   3.166   2.495   4.243 -0.2916  0.2646  0.1016
 2586SOL     OW10346   3.110   2.731   4.125  0.4726 -0.0865  0.0590
 2586SOL    HW210347   3.182   2.770   4.174 -0.2454 -0.0891  1.1614
 2586SOL    HW310348   3.033   2.781   4.154 -0.4738 -2.3571  1.5618
 2586SOL    MW410349   3.109   2.743   4.136  0.2527 -0.3865  0.4029
 2587SOL     OW10350   3.349   2.840   4.211 -0.0440  0.2479 -0.2549
 2587SOL    HW210351   3.429   2.800   4.178  0.8705  0.4937  1.5853
 2587SOL    HW310352   3.359   2.934   4.192  0.2671  0.3238  0.2642
 2587SOL    MW410353   3.361   2.847   4.204  0.1175  0.2904  0.0558
 2588SOL     OW10354   3.382   3.106   4.145 -0.0294 -0.4526 -0.4934
 2588SOL    HW210355   3.311   3.157   4.186 -1.0907 -1.9215 -0.4548
 2588SOL    HW310356   3.364   3.112   4.051 -0.4569 -1.1742 -0.4602
 2588SOL    MW410357   3.370   3.114   4.138 -0.2258 -0.7415 -0.4845
 2589SOL     OW10358   3.159   3.229   4.270  0.1348 -0.7915 -0.3969
 2589SOL    HW210359   3.141   3.321   4.251  0.6309  0.0099  2.6236
 2589SOL    HW310360   3.089   3.181   4.225 -0.0950  1.0419 -2.0730
 2589SOL    MW410361   3.147   3.235   4.262  0.1700 -0.4439 -0.2193
 2590SOL     OW10362   3.152   3.511   4.184 -0.1789 -0.8523  0.3074
 2590SOL    HW210363   3.080   3.567   4.214 -0.7580 -1.4715  0.0723
 2590SOL    HW310364   3.156   3.526   4.090 -0.5877 -1.5064  0.1877
 2590SOL    MW410365   3.143   3.521   4.176 -0.3092 -1.0202  0.2604
 2591SOL     OW10366   3.376   3.677   4.262  0.8337 -0.3362 -0.0747
 2591SOL    HW210367   3.381   3.691   4.357 -0.2366 -0.8647  0.0711
 2591SOL    HW310368   3.295   3.626   4.250  1.1396 -0.5595 -1.2347
 2591SOL    MW410369   3.366   3.672   4.273  0.7329 -0.4354 -0.2084
 2592SOL     OW10370   3.403   3.923   4.137 -0.4331  0.1179 -0.1505
 2592SOL    HW210371   3.389   3.833   4.166 -1.4870  0.3399  0.0426
 2592SOL    HW310372   3.419   3.916   4.043  0.1452 -0.3281 -0.0197
 2592SOL    MW410373   3.403   3.910   4.128 -0.4957  0.0885 -0.1078
 2593SOL     OW10374   3.160   4.021   4.249  0.4788  0.1194 -0.1783
 2593SOL    HW210375   3.142   3.982   4.335 -0.2624 -1.4131 -1.0099
 2593SOL    HW310376   3.242   3.982   4.221  0.7783  0.7063 -0.1365
 2593SOL    MW410377   3.168   4.011   4.257  0.4206 -0.0052 -0.2832
 2594SOL     OW10378   3.141   4.273   4.142  0.2780  0.1238  0.0094
 2594SOL    HW210379   3.217   4.329   4.155  1.0432 -0.1226 -3.0228
 2594SOL    HW310380   3.167   4.188   4.178  0.2912  0.8430  1.7310
 2594SOL    MW410381   3.154   4.269   4.148  0.3808  0.1860 -0.1636
 2595SOL     OW10382   3.378   4.415   4.215  0.0058  0.5534 -0.8258
 2595SOL    HW210383   3.391   4.392   4.308 -0.1766 -1.3839 -1.2478
 2595SOL    HW310384   3.446   4.365   4.169 -1.0036  0.1318 -1.8869
 2595SOL    MW410385   3.389   4.405   4.221 -0.1516  0.2422 -1.0209
 2596SOL     OW10386   3.850   0.004   4.156  0.3630  0.2199  0.1177
 2596SOL    HW210387   3.929   0.053   4.177  1.2121 -0.3356 -1.6519
 2596SOL    HW310388   3.834   0.023   4.063 -0.4147 -1.2617 -0.0658
 2596SOL    MW410389   3.858   0.013   4.146  0.3724 -0.0489 -0.1397
 2597SOL     OW10390   3.641   0.136   4.258 -0.1624  0.3076 -0.3166
 2597SOL    HW210391   3.649   0.227   4.227 -2.0810  0.3441 -0.8074
 2597SOL    HW310392   3.712   0.089   4.213  0.1125  1.3411 -0.9867
 2597SOL    MW410393   3.651   0.142   4.248 -0.3791  0.4488 -0.4697
 2598SOL     OW10394   3.625   0.415   4.155 -0.1557  0.4980 -0.0246
 2598SOL    HW210395   3.704   0.455   4.191 -0.9219  0.6858  1.4769
 2598SOL    HW310396   3.629   0.434   4.061  2.3026 -0.7120 -0.2208
 2598SOL    MW410397   3.636   0.423   4.147  0.0675  0.3632  0.1478
 2599SOL     OW10398   3.855   0.488   4.270  0.3491 -0.1454 -0.2820
 2599SOL    HW210399   3.851   0.494   4.365  0.2529 -2.2555 -0.1195
 2599SOL    HW310400   3.835   0.576   4.239 -1.6658  0.0844  1.5974
 2599SOL    MW410401   3.852   0.500   4.279  0.0706 -0.3935 -0.0129
 2600SOL     OW10402   3.796   0.725   4.142 -0.2586  0.0219  0.0446
 2600SOL    HW210403   3.730   0.791   4.165  0.2870  0.8684 -0.7934
 2600SOL    HW310404   3.799   0.726   4.046 -0.5872 -1.5705  0.0016
 2600SOL    MW410405   3.788   0.734   4.132 -0.2301 -0.0765 -0.0710
 2601SOL     OW10406   3.624   0.940   4.216 -0.1758  0.2868 -0.2536
 2601SOL    HW210407   3.625   1.031   4.188 -0.5608  0.1232 -0.7980
 2601SOL    HW310408   3.547   0.902   4.174  0.0685 -0.3287 -0.1562
 2601SOL    MW410409   3.614   0.947   4.207 -0.1943  0.1840 -0.3128
 2602SOL     OW10410   3.648   1.210   4.163 -0.5588 -0.0485 -0.3266
 2602SOL    HW210411   3.559   1.232   4.191 -0.2699 -1.0202  1.4674
 2602SOL    HW310412   3.644   1.212   4.068 -1.9443  2.0638 -0.2699
 2602SOL    MW410413   3.636   1.213   4.154 -0.7033  0.1019 -0.0820
 2603SOL     OW10414   3.876   1.346   4.239 -0.5321 -0.2712  0.3076
 2603SOL    HW210415   3.789   1.315   4.214 -0.4690 -0.2001  0.0057
 2603SOL    HW310416   3.888   1.426   4.189  0.7273 -1.5970 -1.5663
 2603SOL    MW410417   3.866   1.352   4.229 -0.3574 -0.4369  0.0210
 2604SOL     OW10418   3.892   1.587   4.106 -0.3971  0.0508 -0.1875
 2604SOL    HW210419   3.961   1.640   4.146  0.9355 -0.8541 -1.2627
 2604SOL    HW310420   3.812   1.614   4.151  0.4392  2.1241  0.0785
 2604SOL    MW410421   3.890   1.597   4.118 -0.1111  0.2052 -0.2942
 2605SOL     OW10422   3.631   1.665   4.228 -0.1471 -0.3535  0.0105
 2605SOL    HW210423   3.552   1.620   4.198 -0.8830 -0.4430  2.0604
 2605SOL    HW310424   3.637   1.644   4.321  1.8003  0.3965  0.0726
 2605SOL    MW410425   3.622   1.656   4.236  0.0126 -0.2664  0.2894
 2606SOL     OW10426   3.564   1.932   4.163  0.9901  0.1455  0.1756
 2606SOL    HW210427   3.572   1.840   4.189 -3.4353 -0.2476  0.5892
 2606SOL    HW310428   3.591   1.934   4.072  0.0411 -1.8388 -0.1799
 2606SOL    MW410429   3.569   1.920   4.155  0.2811 -0.1682  0.1831
 2607SOL     OW10430   3.684   2.106   4.323 -0.1434 -0.1739  0.4815
 2607SOL    HW210431   3.757   2.059   4.363  0.7774 -0.0527 -1.0127
 2607SOL    HW310432   3.647   2.044   4.260  0.3079  0.6599 -0.6154
 2607SOL    MW410433   3.689   2.092   4.320  0.0374 -0.0482  0.1397
 2608SOL     OW10434   3.802   2.325   4.176 -0.0361  0.0233  0.0004
 2608SOL    HW210435   3.779   2.239   4.212 -0.6964 -0.4845 -1.5630
 2608SOL    HW310436   3.805   2.311   4.081 -0.3524  1.7700 -0.2960
 2608SOL    MW410437   3.799   2.312   4.168 -0.1650  0.1869 -0.2456
 2609SOL     OW10438   3.569   2.474   4.216 -0.3910 -0.4040  0.3686
 2609SOL    HW210439   3.571   2.508   4.305  1.1577  0.3737  0.0536
 2609SOL    HW310440   3.659   2.443   4.200 -0.6176 -0.4076 -0.9620
 2609SOL    MW410441   3.581   2.474   4.225 -0.2167 -0.3021  0.1516
 2610SOL     OW10442   3.582   2.731   4.122  0.3761 -0.1201  0.1040
 2610SOL    HW210443   3.568   2.637   4.128  4.6882 -0.8439 -0.0239
 2610SOL    HW310444   3.587   2.750   4.029  3.1651 -0.4272  0.1529
 2610SOL    MW410445   3.581   2.721   4.111  1.3132 -0.2563  0.0939
 2611SOL     OW10446   3.814   2.845   4.236 -0.2373 -0.2609 -0.5138
 2611SOL    HW210447   3.799   2.891   4.318  0.3595  0.9085 -1.0574
 2611SOL    HW310448   3.726   2.823   4.204 -0.4498 -1.3529  0.7815
 2611SOL    MW410449   3.801   2.848   4.243 -0.1864 -0.2506 -0.4144
 2612SOL     OW10450   3.811   3.112   4.154 -0.0306 -0.1427 -0.1895
 2612SOL    HW210451   3.831   3.021   4.178  0.8361  0.1291  0.1466
 2612SOL    HW310452   3.812   3.112   4.059  0.1240 -0.4568 -0.1895
 2612SOL    MW410453   3.814   3.100   4.145  0.1044 -0.1483 -0.1454
 2613SOL     OW10454   3.586   3.257   4.260 -0.0681  0.3431 -0.1471
 2613SOL    HW210455   3.660   3.206   4.227 -0.5027 -0.7313  0.5277
 2613SOL    HW310456   3.509   3.214   4.223 -0.3543  1.7432 -1.2349
 2613SOL    MW410457   3.586   3.245   4.251 -0.1631  0.3862 -0.2017
 2614SOL     OW10458   3.596   3.525   4.156 -0.3948  0.3326  0.6243
 2614SOL    HW210459   3.593   3.438   4.195  0.3881  0.1278  0.2491
 2614SOL    HW310460   3.535   3.578   4.208 -1.3167 -0.5821  0.4858
 2614SOL    MW410461   3.588   3.521   4.168 -0.4129  0.1845  0.5560
 2615SOL     OW10462   3.824   3.645   4.257  0.0652  0.1015  0.1007
 2615SOL    HW210463   3.896   3.588   4.232 -0.6565 -1.1456  0.8069
 2615SOL    HW310464   3.750   3.614   4.206  0.5116  2.8106 -2.3276
 2615SOL    MW410465   3.824   3.633   4.247  0.0288  0.2944 -0.1268
 2616SOL     OW10466   3.866   3.901   4.157 -0.2328 -0.1495 -0.4744
 2616SOL    HW210467   3.786   3.947   4.181 -0.9135 -1.0876 -0.8922
 2616SOL    HW310468   3.849   3.809   4.179  1.1996 -0.1791  0.5833
 2616SOL    MW410469   3.853   3.895   4.163 -0.1338 -0.2770 -0.3901
 2617SOL     OW10470   3.648   4.030   4.243 -0.4918 -0.7903  0.1721
 2617SOL    HW210471   3.618   4.040   4.333 -1.8815  0.5043 -0.3993
 2617SOL    HW310472   3.568   4.007   4.194  0.4220 -2.4834 -0.5752
 2617SOL    MW410473   3.633   4.028   4.248 -0.5548 -0.8430 -0.0014
 2618SOL     OW10474   3.608   4.285   4.142  0.1323  0.4505 -0.0934
 2618SOL    HW210475   3.672   4.341   4.187  0.3747  0.2520 -0.1903
 2618SOL    HW310476   3.631   4.196   4.169  0.5572  0.2928 -0.9639
 2618SOL    MW410477   3.619   4.281   4.151  0.2205  0.4034 -0.2213
 2619SOL     OW10478   3.848   4.417   4.252  0.0725 -0.7439  0.0167
 2619SOL    HW210479   3.923   4.361   4.228  0.6773  0.0199  0.1160
 2619SOL    HW310480   3.868   4.502   4.213 -0.5397 -0.4174  0.4150
 2619SOL    MW410481   3.861   4.420   4.244  0.0715 -0.5999  0.0825
 2620SOL     OW10482   4.317   0.015   4.172 -0.7102  0.2385  0.0619
 2620SOL    HW210483   4.330  -0.078   4.193  0.8752  0.2353 -0.7951
 2620SOL    HW310484   4.390   0.059   4.216 -1.3181  1.0485  0.2636
 2620SOL    MW410485   4.329   0.009   4.181 -0.5808  0.3452 -0.0243
 2621SOL     OW10486   4.090   0.109   4.285  0.4663 -0.0269  0.0970
 2621SOL    HW210487   4.097   0.199   4.256  2.0949  0.0255  0.6017
 2621SOL    HW310488   4.161   0.063   4.240  1.2281 -0.5248  1.7591
 2621SOL    MW410489   4.100   0.115   4.276  0.7811 -0.0857  0.3834
 2622SOL     OW10490   4.085   0.375   4.176  0.1573  0.7676 -0.0580
 2622SOL    HW210491   4.150   0.431   4.219  0.7659  0.5855 -0.7318
 2622SOL    HW310492   4.001   0.412   4.202  0.5030  0.4024  1.6371
 2622SOL    MW410493   4.083   0.388   4.185  0.2832  0.6954  0.0768
 2623SOL     OW10494   4.286   0.535   4.298  0.4017 -0.1106 -0.1455
 2623SOL    HW210495   4.297   0.619   4.254  0.5170 -1.2518 -2.3327
 2623SOL    HW310496   4.362   0.483   4.271  1.2059 -0.3870  2.4949
 2623SOL    MW410497   4.298   0.539   4.289  0.5231 -0.2977 -0.0858
 2624SOL     OW10498   4.290   0.788   4.168 -0.1103 -0.1129 -0.5529
 2624SOL    HW210499   4.200   0.801   4.198  0.1429 -0.9211  0.6406
 2624SOL    HW310500   4.281   0.761   4.077 -1.3897 -4.1773  0.6467
 2624SOL    MW410501   4.277   0.786   4.160 -0.2456 -0.7558 -0.2370
 2625SOL     OW10502   4.022   0.860   4.226 -0.1068  0.4434  0.0227
 2625SOL    HW210503   4.004   0.950   4.198  0.4762  0.7299  0.5685
 2625SOL    HW310504   3.950   0.809   4.189 -1.3519  1.3891  1.0887
 2625SOL    MW410505   4.010   0.865   4.217 -0.1941  0.6059  0.2360
 2626SOL     OW10506   4.014   1.126   4.155 -0.0176  0.4957 -0.1541
 2626SOL    HW210507   4.094   1.174   4.176  0.0607 -0.1088  0.9751
 2626SOL    HW310508   3.943   1.182   4.187  0.0240  0.3487  0.1969
 2626SOL    MW410509   4.015   1.140   4.162 -0.0014  0.3965  0.0410
 2627SOL     OW10510   4.283   1.261   4.192  0.2230  0.0159  0.2582
 2627SOL    HW210511   4.269   1.249   4.286 -0.2590 -0.6724  0.1054
 2627SOL    HW310512   4.366   1.216   4.175  0.9039  1.1333  0.5504
 2627SOL    MW410513   4.292   1.254   4.202  0.2494  0.0724  0.2766
 2628SOL     OW10514   4.285   1.536   4.131  0.3678 -0.0819  0.3733
 2628SOL    HW210515   4.282   1.445   4.158  1.6048 -0.1636  0.2376
 2628SOL    HW310516   4.266   1.534   4.038  0.4470 -0.2053  0.3604
 2628SOL    MW410517   4.282   1.524   4.123  0.5417 -0.1090  0.3533
 2629SOL     OW10518   4.112   1.726   4.227 -0.4103  0.2331  0.1351
 2629SOL    HW210519   4.126   1.718   4.321  0.9699  1.1618  0.0157
 2629SOL    HW310520   4.176   1.667   4.187  0.3302  1.2946 -0.2728
 2629SOL    MW410521   4.122   1.717   4.234 -0.1302  0.4957  0.0658
 2630SOL     OW10522   4.024   1.974   4.141  0.1558 -0.4892 -0.2581
 2630SOL    HW210523   4.052   1.883   4.152  0.0184 -0.4790  0.1953
 2630SOL    HW310524   3.973   1.993   4.220 -0.9176 -0.4205 -0.9547
 2630SOL    MW410525   4.021   1.965   4.153 -0.0043 -0.4789 -0.2904
 2631SOL     OW10526   4.465   1.954   4.106  0.0770 -0.3155 -0.1855
 2631SOL    HW210527   4.551   1.987   4.134  0.1597 -1.4708  0.9988
 2631SOL    HW310528   4.402   2.011   4.149  0.2413 -0.3530  0.1065
 2631SOL    MW410529   4.468   1.966   4.115  0.1097 -0.4729  0.0091
 2632SOL     OW10530   4.238   2.353   4.130 -0.2437 -0.3849 -0.1513
 2632SOL    HW210531   4.160   2.391   4.170  0.6692  0.9608  0.3807
 2632SOL    HW310532   4.241   2.263   4.162 -1.2548 -0.2703  0.2707
 2632SOL    MW410533   4.228   2.346   4.139 -0.2561 -0.1922 -0.0253
 2633SOL     OW10534   4.023   2.449   4.285  0.1584 -0.2827 -0.6492
 2633SOL    HW210535   4.038   2.399   4.365 -0.8186  0.6144  0.0948
 2633SOL    HW310536   3.944   2.409   4.247  1.3293 -1.5238 -1.8193
 2633SOL    MW410537   4.014   2.437   4.290  0.1841 -0.3278 -0.7048
 2634SOL     OW10538   4.061   2.723   4.177  0.2421  0.2375  0.3682
 2634SOL    HW210539   4.050   2.638   4.220  0.3801  0.0216 -0.0236
 2634SOL    HW310540   3.979   2.770   4.195 -0.1913 -0.3082 -0.1695
 2634SOL    MW410541   4.049   2.718   4.185  0.2031  0.1373  0.2456
 2635SOL     OW10542   4.277   2.856   4.251 -0.1243  0.3298 -0.2607
 2635SOL    HW210543   4.197   2.816   4.218 -0.2904  1.0612 -0.7594
 2635SOL    HW310544   4.347   2.802   4.215 -0.3666  0.1974 -0.5367
 2635SOL    MW410545   4.276   2.844   4.242 -0.1779  0.4089 -0.3624
 2636SOL     OW10546   4.246   3.125   4.164  0.1892  0.2733  0.1449
 2636SOL    HW210547   4.262   3.036   4.195  0.2799  0.5630  0.9460
 2636SOL    HW310548   4.254   3.119   4.068 -0.3705 -0.6840  0.1538
 2636SOL    MW410549   4.249   3.112   4.155  0.1273  0.1850  0.2522
 2637SOL     OW10550   4.016   3.233   4.271  0.0475  0.1350  0.4025
 2637SOL    HW210551   4.092   3.196   4.226 -0.1471 -1.5976  1.4148
 2637SOL    HW310552   3.940   3.191   4.230 -0.2305  0.0739  0.9628
 2637SOL    MW410553   4.016   3.222   4.260 -0.0148 -0.1016  0.6099
 2638SOL     OW10554   4.063   3.520   4.169 -0.6317 -0.3066 -0.1262
 2638SOL    HW210555   4.043   3.435   4.209 -2.1347  0.7831  1.4725
 2638SOL    HW310556   4.057   3.504   4.075  0.2588 -2.2446  0.1179
 2638SOL    MW410557   4.060   3.506   4.162 -0.7124 -0.4184  0.1173
 2639SOL     OW10558   4.300   3.614   4.284 -0.2085 -0.4798  0.3784
 2639SOL    HW210559   4.290   3.707   4.264 -0.8617 -0.5627  0.3247
 2639SOL    HW310560   4.224   3.572   4.244  0.2610 -1.0838  0.1024
 2639SOL    MW410561   4.289   3.620   4.276 -0.2327 -0.5703  0.3352
 2640SOL     OW10562   4.312   3.887   4.197 -0.1262  0.0660 -0.2633
 2640SOL    HW210563   4.242   3.943   4.230 -0.3344 -0.5535  0.3643
 2640SOL    HW310564   4.299   3.884   4.103 -0.6458  0.3525 -0.2016
 2640SOL    MW410565   4.301   3.894   4.189 -0.2227  0.0222 -0.1731
 2641SOL     OW10566   4.097   4.041   4.259  0.2639 -0.2656 -0.0808
 2641SOL    HW210567   4.089   4.042   4.354 -0.8373 -0.3908 -0.1749
 2641SOL    HW310568   4.027   3.983   4.229 -0.1062  0.6631 -1.0382
 2641SOL    MW410569   4.087   4.033   4.268  0.0691 -0.1602 -0.2198
 2642SOL     OW10570   4.077   4.296   4.132 -0.2195 -0.3731  0.4941
 2642SOL    HW210571   4.156   4.334   4.171  0.1364 -0.9499  0.3428
 2642SOL    HW310572   4.078   4.204   4.161 -0.9831 -0.3155  0.7265
 2642SOL    MW410573   4.088   4.289   4.141 -0.2732 -0.4420  0.5050
 2643SOL     OW10574   4.232   4.627   4.655 -0.3129  0.1062 -0.8566
 2643SOL    HW210575   4.283   4.702   4.625  0.2341  2.1519  4.6123
 2643SOL    HW310576   4.141   4.654   4.643 -0.1179  0.7966 -0.8159
 2643SOL    MW410577   4.226   4.640   4.649 -0.2141  0.4673 -0.1292
 2644SOL     OW10578   0.077   0.207   4.531 -0.0304 -0.1028  0.5198
 2644SOL    HW210579   0.095   0.295   4.564 -0.0239 -0.1166  0.5531
 2644SOL    HW310580  -0.018   0.201   4.529 -0.0339 -0.4361  1.4274
 2644SOL    MW410581   0.067   0.217   4.535 -0.0299 -0.1486  0.6437
 2645SOL     OW10582   4.302   4.401   4.520 -0.1577  0.1296  0.1345
 2645SOL    HW210583   4.242   4.337   4.559  0.2743 -0.7351 -0.6149
 2645SOL    HW310584   4.278   4.484   4.561 -0.9548 -0.4495  0.8561
 2645SOL    MW410585   4.291   4.403   4.531 -0.2060 -0.0606  0.1307
 2646SOL     OW10586   3.981   0.105   4.564  0.0607  0.0705  0.2186
 2646SOL    HW210587   3.980   0.087   4.470  0.7195 -1.0395  0.4208
 2646SOL    HW310588   3.889   0.101   4.589 -0.2253  1.4216 -0.5668
 2646SOL    MW410589   3.969   0.102   4.555  0.1101  0.1023  0.1411
 2647SOL     OW10590   4.186   1.195   4.784  0.0547  0.3749 -0.2938
 2647SOL    HW210591   4.272   1.167   4.814  0.1803  1.3569  0.2831
 2647SOL    HW310592   4.185   1.290   4.799 -1.0632  0.3940 -0.4469
 2647SOL    MW410593   4.197   1.204   4.790 -0.0758  0.5070 -0.2379
 2648SOL     OW10594   0.324   0.010   4.517  0.3178 -0.5953  0.3508
 2648SOL    HW210595   0.239   0.043   4.546  0.5014  0.4262 -0.2492
 2648SOL    HW310596   0.312  -0.084   4.511 -0.2341 -0.6540  2.0424
 2648SOL    MW410597   0.311   0.002   4.520  0.2692 -0.4683  0.4950
 2649SOL     OW10598   0.644   0.821   4.616 -0.1607  0.2269 -0.2206
 2649SOL    HW210599   0.652   0.727   4.597 -0.3129  0.5735 -2.0729
 2649SOL    HW310600   0.551   0.840   4.601 -0.0311  0.7723 -0.3347
 2649SOL    MW410601   0.633   0.811   4.612 -0.1636  0.3446 -0.4807
 2650SOL     OW10602   4.361   0.853   4.586 -0.3380  0.4815 -0.8649
 2650SOL    HW210603   4.345   0.758   4.589  2.0819  0.0768  2.2006
 2650SOL    HW310604   4.412   0.866   4.507  0.2568 -0.9557 -0.7344
 2650SOL    MW410605   4.365   0.842   4.576  0.0601  0.2385 -0.4435
 2651SOL     OW10606   0.457   1.394   4.522 -0.0443  0.1107  0.3720
 2651SOL    HW210607   0.417   1.309   4.540 -1.0544  0.2410 -1.2230
 2651SOL    HW310608   0.418   1.453   4.588  0.7532 -0.6697  1.5568
 2651SOL    MW410609   0.447   1.391   4.533 -0.0723  0.0249  0.3181
 2652SOL     OW10610   0.656   2.032   4.565  0.3221 -0.0532  0.6198
 2652SOL    HW210611   0.724   1.969   4.590 -1.5599 -1.7887  1.5156
 2652SOL    HW310612   0.574   1.987   4.582 -1.0893  2.2544  0.2005
 2652SOL    MW410613   0.654   2.018   4.571 -0.1124  0.0224  0.6828
 2653SOL     OW10614   4.259   1.242   4.466 -0.2480  0.0427 -0.3300
 2653SOL    HW210615   4.230   1.152   4.482 -0.2461 -0.0870 -1.0600
 2653SOL    HW310616   4.352   1.242   4.490 -0.4684  0.0814  0.5447
 2653SOL    MW410617   4.267   1.230   4.471 -0.2770  0.0306 -0.3109
 2654SOL     OW10618   0.187   1.943   4.497  0.2073 -0.0572  0.1205
 2654SOL    HW210619   0.118   1.880   4.517 -0.0577 -0.0462 -0.7725
 2654SOL    HW310620   0.154   2.026   4.531 -0.4724  0.0590 -0.8126
 2654SOL    MW410621   0.174   1.946   4.504  0.0827 -0.0405 -0.1206
 2655SOL     OW10622   0.539   1.626   4.384 -0.3129 -0.6791 -0.5920
 2655SOL    HW210623   0.501   1.544   4.417  0.3548 -0.8760 -0.2944
 2655SOL    HW310624   0.595   1.599   4.312 -0.3634 -0.4460 -0.7172
 2655SOL    MW410625   0.541   1.612   4.379 -0.2314 -0.6744 -0.5689
 2656SOL     OW10626   0.069   2.187   4.612  0.1172  0.4873  0.3626
 2656SOL    HW210627   0.103   2.174   4.701 -0.1756  0.9256  0.5401
 2656SOL    HW310628   0.098   2.275   4.588 -0.7757  0.8187  0.4693
 2656SOL    MW410629   0.077   2.197   4.621 -0.0392  0.5891  0.4001
 2657SOL     OW10630   4.132   2.318   4.765  0.4799 -0.0437  0.2813
 2657SOL    HW210631   4.154   2.410   4.779 -2.1475  0.6497  0.2077
 2657SOL    HW310632   4.199   2.286   4.705 -0.5638  2.8464 -2.6359
 2657SOL    MW410633   4.143   2.326   4.759 -0.0043  0.4289 -0.1130
 2658SOL     OW10634   0.484   2.702   4.528 -0.5020  0.2100 -0.4535
 2658SOL    HW210635   0.447   2.731   4.445 -0.0382 -0.2198 -0.8183
 2658SOL    HW310636   0.492   2.607   4.518  0.8473  0.3190 -0.4517
 2658SOL    MW410637   0.480   2.693   4.516 -0.2628  0.1676 -0.5016
 2659SOL     OW10638   0.390   2.925   4.667 -0.0779  0.0541 -0.2860
 2659SOL    HW210639   0.435   2.850   4.629 -0.6949 -0.3132 -0.2904
 2659SOL    HW310640   0.299   2.914   4.640 -0.4783 -0.0843  1.1319
 2659SOL    MW410641   0.384   2.914   4.658 -0.2122 -0.0124 -0.1001
 2660SOL     OW10642   4.279   2.459   4.472  0.1339 -0.1125  0.5779
 2660SOL    HW210643   4.348   2.514   4.510 -0.0719  0.5276  0.0412
 2660SOL    HW310644   4.198   2.491   4.512 -0.1451  0.9333 -0.7854
 2660SOL    MW410645   4.277   2.470   4.482  0.0701  0.1099  0.3276
 2661SOL     OW10646   4.339   3.351   4.658 -0.0647 -0.3339 -0.0353
 2661SOL    HW210647   4.401   3.286   4.626  0.7101  1.0010 -1.2963
 2661SOL    HW310648   4.254   3.322   4.623 -0.1847 -2.1102  1.6190
 2661SOL    MW410649   4.336   3.338   4.649  0.0219 -0.3922  0.0172
 2662SOL     OW10650   0.069   3.179   4.522  0.0330 -0.0004 -0.3406
 2662SOL    HW210651   0.040   3.154   4.434  1.6952 -1.7521 -0.4471
 2662SOL    HW310652   0.130   3.252   4.508 -0.5455  0.4452 -0.5391
 2662SOL    MW410653   0.073   3.185   4.509  0.1760 -0.1726 -0.3805
 2663SOL     OW10654   4.335   3.850   4.608  0.3138  0.5309  0.0993
 2663SOL    HW210655   4.251   3.877   4.571  0.1464  2.4536  1.7961
 2663SOL    HW310656   4.339   3.755   4.593 -1.1009  0.7959 -2.0417
 2663SOL    MW410657   4.324   3.841   4.601  0.1049  0.8197  0.0401
 2664SOL     OW10658   4.302   0.194   4.522  0.1999  0.3215 -0.4434
 2664SOL    HW210659   4.255   0.244   4.589 -0.0529  0.0923 -0.4542
 2664SOL    HW310660   4.237   0.177   4.454  0.3037  0.0246 -0.4685
 2664SOL    MW410661   4.287   0.199   4.521  0.1802  0.2521 -0.4482
 2665SOL     OW10662   3.850   0.506   4.557  0.4896  0.6292  0.0798
 2665SOL    HW210663   3.759   0.475   4.564  0.1705  1.3405 -0.7775
 2665SOL    HW310664   3.844   0.601   4.573  1.1904  0.5601  0.7843
 2665SOL    MW410665   3.837   0.515   4.560  0.5398  0.7139  0.0596
 2666SOL     OW10666   4.021   3.553   4.779 -0.1241 -0.0794 -0.3007
 2666SOL    HW210667   4.109   3.590   4.791 -0.5874  1.1074 -0.4709
 2666SOL    HW310668   3.997   3.520   4.865  0.3530 -0.0878 -0.1686
 2666SOL    MW410669   4.029   3.554   4.792 -0.1225  0.0761 -0.3061
 2667SOL     OW10670   3.863   4.252   4.628 -0.0532 -0.0634  0.3666
 2667SOL    HW210671   3.801   4.322   4.608 -0.9992 -1.2592 -0.9749
 2667SOL    HW310672   3.809   4.181   4.664  0.7392 -0.5683  0.5910
 2667SOL    MW410673   3.848   4.252   4.630 -0.0737 -0.2875  0.2193
 2668SOL     OW10674   0.543   0.021   4.671 -0.2258  0.0380 -0.2871
 2668SOL    HW210675   0.466   0.016   4.615 -0.4031  0.1428 -0.0492
 2668SOL    HW310676   0.537  -0.054   4.729  0.4213 -0.5815 -0.9971
 2668SOL    MW410677   0.532   0.011   4.671 -0.1637 -0.0299 -0.3495
 2669SOL     OW10678   4.463   1.066   4.786  0.0091  0.0482 -0.6096
 2669SOL    HW210679   4.414   0.996   4.743 -0.6823  0.8293 -1.1018
 2669SOL    HW310680   4.538   1.022   4.826 -1.8105 -1.3931  1.3255
 2669SOL    MW410681   4.466   1.051   4.786 -0.3219 -0.0389 -0.4191
 2670SOL     OW10682   1.427   1.099   4.785 -0.2215 -0.4383  0.0845
 2670SOL    HW210683   1.424   1.072   4.877 -1.2222 -0.1505  0.1454
 2670SOL    HW310684   1.360   1.046   4.742  0.6633 -1.0084 -0.6046
 2670SOL    MW410685   1.418   1.088   4.791 -0.2369 -0.4754  0.0014
 2671SOL     OW10686   0.715   0.282   4.697  0.0564 -0.0974 -0.1052
 2671SOL    HW210687   0.788   0.238   4.654  0.0950 -0.4911  0.3566
 2671SOL    HW310688   0.643   0.219   4.694  0.1670 -0.2635  0.7228
 2671SOL    MW410689   0.715   0.268   4.691  0.0761 -0.1712  0.0648
 2672SOL     OW10690   1.217   0.969   4.658 -0.4500  0.0606 -0.1774
 2672SOL    HW210691   1.275   0.916   4.604 -0.9445 -0.6932  0.0338
 2672SOL    HW310692   1.130   0.931   4.645 -0.7939  0.7699  0.0325
 2672SOL    MW410693   1.213   0.957   4.649 -0.5605  0.0548 -0.1221
 2673SOL     OW10694   0.374   0.918   4.544  0.4967  0.3686  0.0278
 2673SOL    HW210695   0.336   0.832   4.563  0.0852  0.5017 -0.1747
 2673SOL    HW310696   0.411   0.909   4.456  0.8444  0.2691  0.1841
 2673SOL    MW410697   0.374   0.905   4.535  0.4883  0.3730  0.0215
 2674SOL     OW10698   2.107   1.172   4.523 -0.2838  0.3926 -0.0000
 2674SOL    HW210699   2.091   1.206   4.435 -0.1783  0.1643 -0.1084
 2674SOL    HW310700   2.175   1.230   4.558  0.0237  0.1873 -0.2504
 2674SOL    MW410701   2.114   1.184   4.516 -0.2291  0.3353 -0.0472
 2675SOL     OW10702   0.783   1.641   4.515 -0.6071 -0.3818  0.5607
 2675SOL    HW210703   0.797   1.718   4.570 -0.2868  0.6059 -0.8604
 2675SOL    HW310704   0.690   1.643   4.493 -0.5774 -0.3330  0.4368
 2675SOL    MW410705   0.773   1.652   4.519 -0.5609 -0.2451  0.3572
 2676SOL     OW10706   1.282   1.328   4.637  0.1155  0.5468  0.3268
 2676SOL    HW210707   1.322   1.257   4.687  1.2028  0.8360 -0.1117
 2676SOL    HW310708   1.188   1.310   4.641  0.4332 -1.5828 -0.7810
 2676SOL    MW410709   1.275   1.316   4.644  0.3008  0.3040  0.1225
 2677SOL     OW10710   0.894   1.862   4.662  0.0555  0.3295  0.2443
 2677SOL    HW210711   0.955   1.909   4.605 -0.6283  0.7213 -0.1644
 2677SOL    HW310712   0.951   1.816   4.724  0.7933  0.1258 -0.5720
 2677SOL    MW410713   0.910   1.862   4.662  0.0626  0.3544  0.0830
 2678SOL     OW10714   0.694   2.323   4.513 -0.1423  0.1765  0.2757
 2678SOL    HW210715   0.778   2.363   4.535  0.4258 -0.7477 -0.1450
 2678SOL    HW310716   0.703   2.232   4.541 -0.0953 -0.5385 -1.9326
 2678SOL    MW410717   0.707   2.316   4.519 -0.0612 -0.0398 -0.0715
 2679SOL     OW10718   1.095   1.693   4.823  0.9130  0.2659  0.8478
 2679SOL    HW210719   1.095   1.661   4.913 -0.2683  0.3824  0.8988
 2679SOL    HW310720   1.181   1.667   4.788  1.1312 -0.3248  1.8094
 2679SOL    MW410721   1.106   1.685   4.830  0.7861  0.2035  0.9818
 2680SOL     OW10722   0.149   2.417   4.490  0.0940 -0.0003 -0.0244
 2680SOL    HW210723   0.116   2.428   4.401  0.2126  1.2138  0.0789
 2680SOL    HW310724   0.244   2.419   4.481  0.1818 -2.9813 -0.2522
 2680SOL    MW410725   0.157   2.419   4.477  0.1212 -0.2332 -0.0410
 2681SOL     OW10726   1.080   2.686   4.561  0.1309  0.2177 -0.2463
 2681SOL    HW210727   1.087   2.777   4.532  2.2910  0.4552  0.9021
 2681SOL    HW310728   1.149   2.676   4.627 -0.0780 -2.2401 -0.3311
 2681SOL    MW410729   1.090   2.696   4.566  0.3885 -0.0753 -0.1063
 2682SOL     OW10730   0.430   2.420   4.452 -0.2422  0.0864 -0.5807
 2682SOL    HW210731   0.514   2.383   4.480 -0.9269 -1.0367  0.0013
 2682SOL    HW310732   0.441   2.433   4.358  0.0801 -1.4284 -0.7651
 2682SOL    MW410733   0.443   2.417   4.443 -0.2900 -0.2615 -0.5283
 2683SOL     OW10734   1.376   2.938   4.603 -0.3814 -0.4487  0.1342
 2683SOL    HW210735   1.295   2.943   4.552 -0.2365 -0.0154 -0.0599
 2683SOL    HW310736   1.364   2.863   4.660 -0.7941 -0.5770 -0.1173
 2683SOL    MW410737   1.363   2.929   4.604 -0.4168 -0.4084  0.0753
 2684SOL     OW10738   0.626   3.133   4.615 -0.1569 -0.1820 -0.0477
 2684SOL    HW210739   0.584   3.213   4.582  0.3858 -0.2809 -1.0147
 2684SOL    HW310740   0.553   3.078   4.644 -0.5873  0.3344 -0.1369
 2684SOL    MW410741   0.611   3.137   4.614 -0.1421 -0.1268 -0.1869
 2685SOL     OW10742   1.303   4.484   4.634  0.0423  0.3571 -0.1985
 2685SOL    HW210743   1.231   4.434   4.596 -0.0250 -1.2288  1.9593
 2685SOL    HW310744   1.382   4.435   4.609  0.0772 -0.0518  0.6796
 2685SOL    MW410745   1.304   4.471   4.626  0.0380  0.0939  0.2022
 2686SOL     OW10746   4.474   2.643   4.580  0.5605  0.0115  0.3787
 2686SOL    HW210747   4.547   2.584   4.563  0.2232 -0.4572  0.5226
 2686SOL    HW310748   4.511   2.731   4.575  1.2424 -0.2418  0.9933
 2686SOL    MW410749   4.488   2.647   4.577  0.6061 -0.0837  0.4783
 2687SOL     OW10750   4.440   3.589   4.537 -0.1880 -0.3595  0.2384
 2687SOL    HW210751   4.400   3.517   4.585  1.4433 -3.1721 -2.4046
 2687SOL    HW310752   4.409   3.579   4.447  1.9177  0.7837 -0.6719
 2687SOL    MW410753   4.431   3.578   4.531  0.3047 -0.5794 -0.2303
 2688SOL     OW10754   0.775   4.352   4.532  0.0445 -0.0340  0.8157
 2688SOL    HW210755   0.774   4.436   4.579  1.3289  0.3530  0.1726
 2688SOL    HW310756   0.715   4.365   4.459 -0.0449  0.1983  0.9270
 2688SOL    MW410757   0.767   4.365   4.529  0.2022  0.0472  0.7458
 2689SOL     OW10758   0.060   4.300   4.520  0.3005  0.4636 -0.5231
 2689SOL    HW210759   0.048   4.205   4.528  1.4702  0.1724 -1.9967
 2689SOL    HW310760  -0.029   4.335   4.526 -0.3735 -0.8995 -1.8975
 2689SOL    MW410761   0.046   4.292   4.522  0.3660  0.2451 -0.8993
 2690SOL     OW10762   0.067   4.013   4.534 -0.4264  0.0122 -0.3586
 2690SOL    HW210763   0.135   3.946   4.543  1.8712  2.2875  0.0454
 2690SOL    HW310764  -0.013   3.971   4.566  1.0102 -2.4049  0.2103
 2690SOL    MW410765   0.066   3.999   4.540  0.0663 -0.0060 -0.2298
 2691SOL     OW10766   0.313   4.412   4.541  0.9170  0.4362 -0.5400
 2691SOL    HW210767   0.375   4.339   4.546  0.0388 -0.3364 -0.8831
 2691SOL    HW310768   0.227   4.371   4.548  0.3741  1.3173 -1.7867
 2691SOL    MW410769   0.310   4.397   4.542  0.7295  0.4506 -0.7496
 2692SOL     OW10770   1.209   0.253   4.616 -0.1154 -0.0263  0.0755
 2692SOL    HW210771   1.207   0.273   4.710 -0.6480  1.6738 -0.2783
 2692SOL    HW310772   1.124   0.213   4.598 -0.0620 -0.2372  0.2845
 2692SOL    MW410773   1.197   0.250   4.626 -0.1787  0.1701  0.0563
 2693SOL     OW10774   0.961   0.159   4.573 -0.1870 -0.2469  0.3500
 2693SOL    HW210775   0.968   0.164   4.478  1.0922  0.3426  0.4779
 2693SOL    HW310776   0.909   0.080   4.589 -0.9272 -0.0144 -0.8465
 2693SOL    MW410777   0.955   0.149   4.563 -0.1159 -0.1385  0.2093
 2694SOL     OW10778   0.681   0.537   4.579 -0.4911 -0.1548  0.3760
 2694SOL    HW210779   0.680   0.503   4.489 -0.2763 -1.1034  0.7262
 2694SOL    HW310780   0.695   0.459   4.633  1.4983  0.7020  1.1083
 2694SOL    MW410781   0.683   0.522   4.574 -0.2003 -0.1669  0.5188
 2695SOL     OW10782   1.646   1.122   4.611 -0.1976 -0.0875  0.1265
 2695SOL    HW210783   1.587   1.101   4.684 -1.0336 -0.6429 -0.6949
 2695SOL    HW310784   1.725   1.156   4.653 -1.3645  1.3243  1.2183
 2695SOL    MW410785   1.649   1.124   4.626 -0.4618  0.0255  0.1626
 2696SOL     OW10786   1.766   0.860   4.568  0.4477  0.0811  0.2983
 2696SOL    HW210787   1.716   0.941   4.575  0.4260  0.2118 -1.2600
 2696SOL    HW310788   1.802   0.861   4.479  0.4061 -1.6426  0.2473
 2696SOL    MW410789   1.764   0.871   4.558  0.4394 -0.1290  0.0858
 2697SOL     OW10790   0.293   1.173   4.544 -0.2871 -0.0211  0.2840
 2697SOL    HW210791   0.313   1.079   4.537  1.3911  0.3429 -0.1778
 2697SOL    HW310792   0.200   1.179   4.525 -0.1853 -1.4859 -0.8134
 2697SOL    MW410793   0.284   1.161   4.541 -0.0522 -0.1664  0.0777
 2698SOL     OW10794   0.754   1.361   4.546 -0.1300  0.1567 -0.0436
 2698SOL    HW210795   0.771   1.455   4.532 -0.1649  0.0239 -1.0552
 2698SOL    HW310796   0.662   1.357   4.570 -0.4973  0.2615 -1.4050
 2698SOL    MW410797   0.744   1.373   4.547 -0.1831  0.1531 -0.3567
 2699SOL     OW10798   0.919   0.894   4.583 -0.2177 -0.8374 -0.3887
 2699SOL    HW210799   0.824   0.895   4.593 -0.2872 -1.6975 -0.9078
 2699SOL    HW310800   0.934   0.903   4.489  0.2160 -0.6673 -0.3062
 2699SOL    MW410801   0.909   0.895   4.572 -0.1697 -0.9286 -0.4463
 2700SOL     OW10802   1.904   1.207   4.717  0.3723  0.3001  0.3354
 2700SOL    HW210803   1.935   1.141   4.780  0.2135  0.7456  0.8835
 2700SOL    HW310804   1.957   1.193   4.639  0.2555 -0.5652  0.4060
 2700SOL    MW410805   1.915   1.196   4.715  0.3362  0.2446  0.4172
 2701SOL     OW10806   1.015   1.241   4.554 -0.0471  0.7984  0.0036
 2701SOL    HW210807   1.010   1.163   4.609  0.5793  0.1738 -0.8178
 2701SOL    HW310808   0.924   1.270   4.546 -0.2644  0.2391  0.4252
 2701SOL    MW410809   1.002   1.235   4.560  0.0069  0.6422 -0.0491
 2702SOL     OW10810   1.206   2.292   4.539 -0.1958 -0.1819  0.5061
 2702SOL    HW210811   1.139   2.353   4.507  0.2843 -0.7126 -1.5894
 2702SOL    HW310812   1.289   2.337   4.522  0.0691 -0.4661  1.0488
 2702SOL    MW410813   1.208   2.306   4.532 -0.0976 -0.2894  0.3009
 2703SOL     OW10814   1.307   2.670   4.703 -0.0538 -0.2048 -0.4414
 2703SOL    HW210815   1.321   2.596   4.645  1.8274  0.3879 -0.7877
 2703SOL    HW310816   1.350   2.645   4.785  0.2968  0.3511 -0.4498
 2703SOL    MW410817   1.314   2.657   4.707  0.2406 -0.0532 -0.4888
 2704SOL     OW10818   1.637   2.874   4.510  0.3882  0.0463  0.3105
 2704SOL    HW210819   1.561   2.911   4.554  0.8415  0.8362  0.4390
 2704SOL    HW310820   1.690   2.950   4.484  1.3169 -0.5050  0.5481
 2704SOL    MW410821   1.634   2.888   4.512  0.5705  0.0777  0.3591
 2705SOL     OW10822   1.495   3.483   4.484 -0.3730 -0.0908 -0.0041
 2705SOL    HW210823   1.579   3.506   4.521 -0.8881 -0.4652  1.4177
 2705SOL    HW310824   1.483   3.391   4.507 -0.9762 -0.1565 -0.5652
 2705SOL    MW410825   1.504   3.474   4.492 -0.5205 -0.1493  0.1092
 2706SOL     OW10826   0.756   2.784   4.507  0.2547  0.1986  0.6015
 2706SOL    HW210827   0.818   2.720   4.541 -0.0026 -1.1094 -1.2990
 2706SOL    HW310828   0.676   2.770   4.557  0.0081 -1.4123 -0.2236
 2706SOL    MW410829   0.753   2.774   4.518  0.1882 -0.1864  0.2418
 2707SOL     OW10830   0.583   3.941   4.516 -0.2933 -0.3553 -0.3940
 2707SOL    HW210831   0.673   3.975   4.506 -1.2115  2.4157  0.1929
 2707SOL    HW310832   0.543   3.955   4.430 -0.0525 -2.0120 -0.7884
 2707SOL    MW410833   0.590   3.948   4.503 -0.3826 -0.2084 -0.3686
 2708SOL     OW10834   1.133   2.951   4.478  0.3018  0.0735  0.0495
 2708SOL    HW210835   1.126   2.922   4.387 -0.7755  0.8492 -0.1116
 2708SOL    HW310836   1.049   2.991   4.498  0.8316  0.6710  1.1310
 2708SOL    MW410837   1.121   2.952   4.469  0.2296  0.2546  0.1707
 2709SOL     OW10838   0.859   3.049   4.493  0.3120 -0.1195  0.1363
 2709SOL    HW210839   0.785   3.105   4.517 -0.1623 -1.0619  0.8946
 2709SOL    HW310840   0.821   2.961   4.486  1.2303 -0.4998 -0.1604
 2709SOL    MW410841   0.844   3.044   4.495  0.3706 -0.2944  0.1969
 2710SOL     OW10842   1.746   3.584   4.568  0.4757 -0.0883  0.3485
 2710SOL    HW210843   1.758   3.678   4.582 -0.9604  0.3040 -0.9959
 2710SOL    HW310844   1.833   3.551   4.544  0.7251  1.1085 -0.3893
 2710SOL    MW410845   1.759   3.592   4.567  0.3192  0.1216  0.0739
 2711SOL     OW10846   0.497   3.353   4.506 -0.1038 -0.2017  0.0319
 2711SOL    HW210847   0.539   3.432   4.539  0.5820 -0.6809  0.3254
 2711SOL    HW310848   0.404   3.372   4.509  0.0263  0.3571  0.7158
 2711SOL    MW410849   0.491   3.366   4.511  0.0038 -0.1910  0.1607
 2712SOL     OW10850   0.509   4.213   4.583  0.1138  0.3165  0.4741
 2712SOL    HW210851   0.597   4.249   4.590 -0.0459  1.4258 -2.4414
 2712SOL    HW310852   0.521   4.119   4.585  1.6959  0.3987 -2.5851
 2712SOL    MW410853   0.522   4.206   4.584  0.3014  0.4730 -0.3138
 2713SOL     OW10854   0.841   4.082   4.529  0.4176  0.1988  0.5818
 2713SOL    HW210855   0.834   4.178   4.531  0.2617  0.2184 -0.5372
 2713SOL    HW310856   0.866   4.062   4.439 -0.7976 -0.9051  0.4836
 2713SOL    MW410857   0.844   4.092   4.517  0.2367  0.0558  0.4215
 2714SOL     OW10858   0.773   4.622   4.537 -0.6486  0.0096  0.1725
 2714SOL    HW210859   0.694   4.654   4.580 -0.2442  2.3369 -0.7173
 2714SOL    HW310860   0.758   4.636   4.444 -0.3027 -2.1530 -0.2238
 2714SOL    MW410861   0.761   4.628   4.530 -0.5496  0.0315  0.0033
 2715SOL     OW10862   1.590   4.163   4.878  0.2658 -0.4292  0.1463
 2715SOL    HW210863   1.575   4.103   4.951  3.1531 -0.4318  0.7720
 2715SOL    HW310864   1.514   4.221   4.879  0.7126  0.1904  3.7583
 2715SOL    MW410865   1.578   4.163   4.887  0.7058 -0.3481  0.7052
 2716SOL     OW10866   1.554   4.390   4.549  0.1260 -0.5562 -0.0033
 2716SOL    HW210867   1.638   4.431   4.566 -0.5789  0.9532 -0.0450
 2716SOL    HW310868   1.542   4.398   4.454 -0.6951  0.5054  0.1839
 2716SOL    MW410869   1.563   4.396   4.539 -0.0753 -0.2170  0.0157
 2717SOL     OW10870   1.067   4.354   4.539  0.0825  0.1331  0.5351
 2717SOL    HW210871   1.094   4.269   4.574 -0.6500 -0.6141 -0.6761
 2717SOL    HW310872   0.972   4.354   4.549 -0.0153  0.3834 -0.3842
 2717SOL    MW410873   1.058   4.342   4.545 -0.0269  0.0672  0.2542
 2718SOL     OW10874   1.200   0.509   4.483  0.2059  0.1471 -0.0469
 2718SOL    HW210875   1.120   0.545   4.520  0.7815  1.3659  0.0205
 2718SOL    HW310876   1.207   0.421   4.522 -1.3677 -0.1830 -0.4641
 2718SOL    MW410877   1.191   0.502   4.493  0.0743  0.2644 -0.0925
 2719SOL     OW10878   1.680   0.111   4.536 -0.1107  0.4121 -0.1326
 2719SOL    HW210879   1.588   0.083   4.541  0.1363 -0.3993 -0.0865
 2719SOL    HW310880   1.727   0.046   4.589  0.3698  1.3469  0.5915
 2719SOL    MW410881   1.674   0.099   4.544 -0.0148  0.4284 -0.0310
 2720SOL     OW10882   1.343   0.764   4.520 -0.2969 -0.3615 -0.1484
 2720SOL    HW210883   1.288   0.686   4.517 -0.7989  0.0384 -1.3801
 2720SOL    HW310884   1.340   0.800   4.432  1.1997  0.1851  0.0065
 2720SOL    MW410885   1.336   0.758   4.508 -0.1656 -0.2366 -0.2909
 2721SOL     OW10886   1.851   1.515   4.769  0.2544  0.1509  0.7503
 2721SOL    HW210887   1.870   1.422   4.759  1.0982  0.2349  1.5441
 2721SOL    HW310888   1.859   1.532   4.863  1.3772  1.2847  0.4757
 2721SOL    MW410889   1.855   1.505   4.780  0.5140  0.3116  0.8187
 2722SOL     OW10890   0.956   0.623   4.572 -0.3460 -0.1571  0.4234
 2722SOL    HW210891   0.946   0.718   4.580 -0.3555 -0.1971  0.8599
 2722SOL    HW310892   0.868   0.588   4.586 -0.6628 -0.1216 -1.3759
 2722SOL    MW410893   0.943   0.631   4.575 -0.3891 -0.1577  0.2437
 2723SOL     OW10894   2.066   0.504   4.532 -0.0506 -0.4385  0.1784
 2723SOL    HW210895   2.125   0.431   4.551 -1.4131 -1.0524  2.1885
 2723SOL    HW310896   1.979   0.468   4.546 -0.9222  0.5732 -2.3737
 2723SOL    MW410897   2.063   0.489   4.536 -0.3455 -0.3860  0.1068
 2724SOL     OW10898   1.520   1.369   4.522 -0.0950 -0.1526  0.4504
 2724SOL    HW210899   1.428   1.369   4.550 -0.2083  2.9297  0.3046
 2724SOL    HW310900   1.553   1.283   4.547 -2.7159 -0.8858  1.5674
 2724SOL    MW410901   1.512   1.358   4.529 -0.4556  0.1574  0.5779
 2725SOL     OW10902   1.315   1.834   4.519 -0.5704  0.2749  0.3713
 2725SOL    HW210903   1.311   1.759   4.578  1.8243  0.9122  1.4258
 2725SOL    HW310904   1.333   1.796   4.433 -0.1728 -0.4321  0.7621
 2725SOL    MW410905   1.317   1.819   4.516 -0.2018  0.2658  0.5622
 2726SOL     OW10906   1.683   2.455   4.501  0.6981 -0.1531  0.6498
 2726SOL    HW210907   1.737   2.521   4.543  1.3453  0.1763 -0.6809
 2726SOL    HW310908   1.731   2.373   4.512  0.5612 -0.1694  1.1085
 2726SOL    MW410909   1.696   2.453   4.508  0.7653 -0.1118  0.5345
 2727SOL     OW10910   1.978   2.363   4.619  0.0246  0.2797  0.0616
 2727SOL    HW210911   1.918   2.289   4.609  1.8357 -1.3091  0.6208
 2727SOL    HW310912   1.927   2.430   4.665 -1.2931 -1.0758  0.6104
 2727SOL    MW410913   1.964   2.362   4.624  0.0896 -0.1090  0.2079
 2728SOL     OW10914   0.972   2.445   4.496  0.0681  0.1438 -0.5776
 2728SOL    HW210915   0.998   2.533   4.523  1.6072 -0.3499 -0.4258
 2728SOL    HW310916   0.936   2.457   4.407 -1.8853  1.2473  0.3169
 2728SOL    MW410917   0.970   2.458   4.487  0.0134  0.2244 -0.4396
 2729SOL     OW10918   1.349   3.997   4.470  0.4446  0.1473 -0.0624
 2729SOL    HW210919   1.356   3.901   4.464  0.5380  0.2248 -1.5007
 2729SOL    HW310920   1.430   4.024   4.513 -0.3562 -0.5414  1.9341
 2729SOL    MW410921   1.361   3.988   4.475  0.3513  0.0665  0.0114
 2730SOL     OW10922   1.403   2.475   4.517 -0.4268 -0.2319 -0.1417
 2730SOL    HW210923   1.363   2.471   4.430  0.1829 -1.5258 -0.3740
 2730SOL    HW310924   1.494   2.451   4.503 -0.3684 -0.6473  0.8880
 2730SOL    MW410925   1.410   2.471   4.504 -0.3387 -0.4575 -0.0367
 2731SOL     OW10926   1.834   2.686   4.558  0.0217  0.1862 -0.0978
 2731SOL    HW210927   1.766   2.752   4.546 -0.5926 -0.4438 -0.0761
 2731SOL    HW310928   1.916   2.735   4.552 -0.4319  0.9475 -0.1064
 2731SOL    MW410929   1.836   2.701   4.556 -0.1191  0.2038 -0.0963
 2732SOL     OW10930   1.454   3.190   4.496 -0.2433  0.1642  0.1192
 2732SOL    HW210931   1.537   3.143   4.489 -0.4135 -0.3788  1.6285
 2732SOL    HW310932   1.391   3.125   4.527 -1.3032  0.5171 -1.2007
 2732SOL    MW410933   1.456   3.175   4.499 -0.4055  0.1390  0.1440
 2733SOL     OW10934   1.357   3.729   4.469 -0.4849 -0.4325  0.1306
 2733SOL    HW210935   1.412   3.660   4.505 -1.0332 -0.8901  0.1099
 2733SOL    HW310936   1.295   3.683   4.412 -0.7757  0.0899  0.0166
 2733SOL    MW410937   1.356   3.714   4.466 -0.5956 -0.4237  0.1125
 2734SOL     OW10938   0.622   3.623   4.535  0.1323 -0.3549 -0.1519
 2734SOL    HW210939   0.571   3.704   4.535  0.3937 -0.1876  0.6861
 2734SOL    HW310940   0.687   3.635   4.605  0.2450 -1.2360 -0.0967
 2734SOL    MW410941   0.624   3.635   4.545  0.1816 -0.4489 -0.0343
 2735SOL     OW10942   2.063   3.527   4.464 -0.0091  0.0329  0.3179
 2735SOL    HW210943   2.076   3.557   4.374 -2.4890  1.2684  0.3379
 2735SOL    HW310944   2.079   3.433   4.460  0.5427  0.1792 -1.2876
 2735SOL    MW410945   2.067   3.518   4.451 -0.2632  0.2153  0.1082
 2736SOL     OW10946   1.751   3.118   4.472 -0.2169 -0.0636 -0.1566
 2736SOL    HW210947   1.828   3.136   4.526 -0.1162  0.5403 -0.4842
 2736SOL    HW310948   1.765   3.171   4.393 -1.4324  0.8136  0.1953
 2736SOL    MW410949   1.763   3.127   4.468 -0.3641  0.1318 -0.1535
 2737SOL     OW10950   2.247   3.616   4.682  0.1899  0.1320  0.2958
 2737SOL    HW210951   2.218   3.707   4.689  0.0114  0.0437  0.7718
 2737SOL    HW310952   2.199   3.581   4.608 -1.7492 -0.3109  1.7222
 2737SOL    MW410953   2.237   3.623   4.673 -0.0894  0.0618  0.5469
 2738SOL     OW10954   1.149   4.111   4.627  0.1125  0.0867 -0.2342
 2738SOL    HW210955   1.076   4.054   4.602  0.2625 -0.3997  0.4260
 2738SOL    HW310956   1.227   4.067   4.592  0.0348  0.9260 -1.4812
 2738SOL    MW410957   1.150   4.097   4.620  0.1221  0.1335 -0.3119
 2739SOL     OW10958   1.799   4.367   4.853  0.0120 -0.2461  0.0697
 2739SOL    HW210959   1.883   4.322   4.861  0.8390  0.7276 -2.4393
 2739SOL    HW310960   1.737   4.297   4.831  0.7865 -0.5732 -1.1794
 2739SOL    MW410961   1.802   4.352   4.851  0.2232 -0.1607 -0.4258
 2740SOL     OW10962   2.267   0.370   4.658 -0.0819  0.0005 -0.4786
 2740SOL    HW210963   2.322   0.444   4.634  0.5967 -0.1079  0.7019
 2740SOL    HW310964   2.266   0.371   4.754 -1.9014 -0.1752 -0.4635
 2740SOL    MW410965   2.274   0.380   4.667 -0.2325 -0.0370 -0.3209
 2741SOL     OW10966   1.399   0.065   4.538  0.0173 -0.2906  0.0789
 2741SOL    HW210967   1.360   0.141   4.581 -2.1532 -1.3573  0.1058
 2741SOL    HW310968   1.359  -0.011   4.582  1.5914 -1.4431 -0.4169
 2741SOL    MW410969   1.388   0.065   4.549 -0.0614 -0.5834  0.0172
 2742SOL     OW10970   1.803   0.406   4.559  0.5353 -0.2607  0.5784
 2742SOL    HW210971   1.763   0.320   4.556  1.3005 -0.6123  0.4294
 2742SOL    HW310972   1.729   0.467   4.560  0.0116 -0.8481 -1.1286
 2742SOL    MW410973   1.788   0.403   4.559  0.5671 -0.3846  0.3338
 2743SOL     OW10974   2.337   0.127   4.527 -0.1418 -0.3543 -0.2402
 2743SOL    HW210975   2.307   0.140   4.437 -0.0458  2.1745  0.0634
 2743SOL    HW310976   2.289   0.192   4.578  1.0025 -0.6883  1.2934
 2743SOL    MW410977   2.326   0.137   4.522  0.0217 -0.0647  0.0019
 2744SOL     OW10978   2.031   0.779   4.662  0.3646  0.4147  0.2345
 2744SOL    HW210979   2.046   0.685   4.654  0.2091  0.4416 -0.3496
 2744SOL    HW310980   1.942   0.792   4.629  0.3504  0.7549  0.4015
 2744SOL    MW410981   2.021   0.769   4.657  0.3424  0.4631  0.1793
 2745SOL     OW10982   1.596   0.613   4.548 -0.0945  0.2273 -0.3032
 2745SOL    HW210983   1.646   0.688   4.579  0.3438  0.6977 -2.1375
 2745SOL    HW310984   1.506   0.645   4.540 -0.6441 -0.4799  2.4968
 2745SOL    MW410985   1.591   0.627   4.551 -0.1092  0.1962 -0.1760
 2746SOL     OW10986   2.129   1.530   4.664 -0.4211  0.3299  0.0254
 2746SOL    HW210987   2.182   1.468   4.714 -1.3807  1.0809  2.0091
 2746SOL    HW310988   2.042   1.526   4.705 -1.3739  0.5950 -1.8967
 2746SOL    MW410989   2.124   1.521   4.676 -0.6733  0.4638  0.0334
 2747SOL     OW10990   1.093   2.016   4.498  0.1530  0.3235  0.1135
 2747SOL    HW210991   1.172   1.966   4.520 -1.8834 -1.9921  2.3077
 2747SOL    HW310992   1.103   2.098   4.546  1.2389  0.0965  0.2961
 2747SOL    MW410993   1.105   2.020   4.507  0.0277 -0.0117  0.4268
 2748SOL     OW10994   1.607   1.598   4.660 -0.5084 -0.6634  0.4743
 2748SOL    HW210995   1.576   1.518   4.617  0.7895 -0.3055 -1.1751
 2748SOL    HW310996   1.692   1.574   4.696 -0.5270 -0.2819  0.7675
 2748SOL    MW410997   1.614   1.584   4.659 -0.3397 -0.5659  0.2961
 2749SOL     OW10998   1.574   1.956   4.449 -0.1396 -0.4268 -0.3506
 2749SOL    HW210999   1.486   1.928   4.474  0.1637 -0.5917  0.5328
 2749SOL    HW311000   1.631   1.884   4.476  0.5163  0.5806  1.0224
 2749SOL    MW411001   1.570   1.943   4.456 -0.0130 -0.3155 -0.0529
 2750SOL     OW11002   1.781   1.782   4.530 -0.1185 -0.2245  0.2060
 2750SOL    HW211003   1.725   1.725   4.583  0.8342 -0.3725  1.0666
 2750SOL    HW311004   1.795   1.733   4.449 -0.2105 -0.7308  0.4966
 2750SOL    MW411005   1.775   1.768   4.526 -0.0049 -0.3108  0.3586
 2751SOL     OW11006   1.983   1.993   4.505  0.1601 -0.2419 -0.0127
 2751SOL    HW211007   1.927   1.916   4.499  0.5024 -0.4716 -0.2881
 2751SOL    HW311008   2.010   2.010   4.414  1.4638 -0.8251  0.2408
 2751SOL    MW411009   1.980   1.985   4.492  0.3773 -0.3492 -0.0157
 2752SOL     OW11010   1.778   2.177   4.530  0.2344 -0.1479  0.3998
 2752SOL    HW211011   1.706   2.121   4.504  1.4333 -1.6770  0.3057
 2752SOL    HW311012   1.857   2.128   4.505  1.3019  2.3646 -1.4064
 2752SOL    MW411013   1.779   2.163   4.523  0.5335 -0.0179  0.1493
 2753SOL     OW11014   2.219   2.454   4.526 -0.4084 -0.0348 -0.4418
 2753SOL    HW211015   2.139   2.412   4.558 -0.2331 -0.1116 -0.1076
 2753SOL    HW311016   2.208   2.456   4.431  0.0466 -1.7870 -0.5587
 2753SOL    MW411017   2.207   2.449   4.518 -0.3252 -0.2759 -0.4134
 2754SOL     OW11018   2.271   2.712   4.624  0.2294 -0.2567  0.2007
 2754SOL    HW211019   2.336   2.686   4.689 -1.6333 -1.9909  1.4480
 2754SOL    HW311020   2.234   2.629   4.592 -0.2365  0.6393 -1.6723
 2754SOL    MW411021   2.274   2.698   4.628 -0.0780 -0.3674  0.1183
 2755SOL     OW11022   1.576   4.112   4.589  0.5943 -0.5849 -0.6431
 2755SOL    HW211023   1.564   4.200   4.553  0.8863 -1.2371 -2.3636
 2755SOL    HW311024   1.592   4.127   4.683 -1.2390  1.0576 -0.5655
 2755SOL    MW411025   1.577   4.126   4.597  0.3909 -0.4544 -0.8597
 2756SOL     OW11026   2.156   3.269   4.415  0.2923  0.0306 -0.5843
 2756SOL    HW211027   2.183   3.262   4.323 -1.0918 -1.5109 -0.9174
 2756SOL    HW311028   2.229   3.233   4.465  1.9456  2.8518 -0.9177
 2756SOL    MW411029   2.169   3.263   4.409  0.3278  0.1993 -0.6719
 2757SOL     OW11030   1.994   3.173   4.608  0.0586 -0.0152 -0.4627
 2757SOL    HW211031   2.011   3.226   4.686 -0.5609  0.0357 -0.3589
 2757SOL    HW311032   2.049   3.212   4.540  1.8759 -1.0936  0.3493
 2757SOL    MW411033   2.003   3.185   4.609  0.2167 -0.1509 -0.3424
 2758SOL     OW11034   2.479   3.694   4.516 -0.0805  0.5790  0.0115
 2758SOL    HW211035   2.402   3.689   4.572 -1.9358  3.6137 -2.0666
 2758SOL    HW311036   2.509   3.785   4.524  1.6397  0.1587 -1.3035
 2758SOL    MW411037   2.473   3.706   4.524 -0.0985  0.9241 -0.4363
 2759SOL     OW11038   1.954   4.057   4.597  0.1803 -0.0363  0.1240
 2759SOL    HW211039   1.884   3.991   4.602 -0.6073  0.8697  1.2340
 2759SOL    HW311040   1.937   4.102   4.514  0.7452 -1.2383 -0.6620
 2759SOL    MW411041   1.942   4.054   4.587  0.1508 -0.0744  0.1674
 2760SOL     OW11042   2.206   3.914   4.642  0.1750 -0.0814 -0.2532
 2760SOL    HW211043   2.127   3.957   4.609 -0.2225  0.6443  1.5622
 2760SOL    HW311044   2.278   3.953   4.593 -0.5041 -0.1008 -1.2916
 2760SOL    MW411045   2.205   3.925   4.631  0.0329  0.0114 -0.1507
 2761SOL     OW11046   1.743   3.870   4.547 -0.1728 -0.0220 -0.0677
 2761SOL    HW211047   1.671   3.930   4.566 -0.1380 -0.0038  0.0107
 2761SOL    HW311048   1.751   3.870   4.452  1.0451  1.5475  0.0076
 2761SOL    MW411049   1.735   3.878   4.537 -0.0075  0.1874 -0.0472
 2762SOL     OW11050   2.049   4.257   4.803  0.4564 -0.3615 -0.0879
 2762SOL    HW211051   2.143   4.269   4.792  0.3562 -0.5087 -1.1566
 2762SOL    HW311052   2.031   4.170   4.766 -0.3066  0.2550 -1.2088
 2762SOL    MW411053   2.059   4.247   4.797  0.3424 -0.2999 -0.3772
 2763SOL     OW11054   1.793   4.532   4.617  0.7034 -0.3340 -0.2558
 2763SOL    HW211055   1.862   4.477   4.580 -0.6530 -0.9650 -1.8957
 2763SOL    HW311056   1.795   4.512   4.711  2.8274 -0.2403 -0.2635
 2763SOL    MW411057   1.803   4.522   4.625  0.8047 -0.4048 -0.4735
 2764SOL     OW11058   2.031   4.385   4.551 -0.0009 -0.5574  0.1854
 2764SOL    HW211059   2.043   4.338   4.633  0.6734 -1.2026 -0.2844
 2764SOL    HW311060   2.111   4.436   4.540  0.5199 -1.5694 -0.7860
 2764SOL    MW411061   2.043   4.386   4.561  0.1569 -0.7758 -0.0043
 2765SOL     OW11062   2.277   4.492   4.495 -0.2356 -0.2032  0.0445
 2765SOL    HW211063   2.337   4.477   4.422 -0.9655 -0.9496 -0.4055
 2765SOL    HW311064   2.263   4.587   4.494  0.5429 -0.0813 -0.1525
 2765SOL    MW411065   2.283   4.503   4.485 -0.2294 -0.2856 -0.0401
 2766SOL     OW11066   1.318   1.602   4.679 -0.0268 -0.2160  0.1436
 2766SOL    HW211067   1.412   1.597   4.696 -0.2834 -0.0027  1.7654
 2766SOL    HW311068   1.297   1.517   4.640  1.1647  0.4834 -2.0621
 2766SOL    MW411069   1.327   1.590   4.676  0.0966 -0.0955  0.0658
 2767SOL     OW11070   2.649   0.138   4.504  0.5776 -0.2080 -0.2902
 2767SOL    HW211071   2.560   0.153   4.537  0.0589 -3.3172 -0.1496
 2767SOL    HW311072   2.640   0.144   4.409  0.2231 -0.3792 -0.2714
 2767SOL    MW411073   2.636   0.141   4.496  0.4625 -0.6408 -0.2694
 2768SOL     OW11074   2.474   0.861   4.635  1.0393  0.3211 -0.1648
 2768SOL    HW211075   2.399   0.884   4.579  0.6001 -0.1416  0.2306
 2768SOL    HW311076   2.551   0.886   4.583  0.6009  3.3364  0.5056
 2768SOL    MW411077   2.474   0.868   4.621  0.9234  0.6579 -0.0243
 2769SOL     OW11078   2.937   0.766   4.548  0.0796 -0.3509  0.0704
 2769SOL    HW211079   3.004   0.832   4.530 -0.2960 -0.0199 -0.1271
 2769SOL    HW311080   2.972   0.685   4.512  0.1243 -0.0595 -0.5498
 2769SOL    MW411081   2.950   0.764   4.541  0.0358 -0.2689 -0.0377
 2770SOL     OW11082   2.276   1.295   4.695 -0.5870  0.1092 -0.3902
 2770SOL    HW211083   2.293   1.210   4.735  0.7038  1.1431  1.3252
 2770SOL    HW311084   2.355   1.315   4.645  0.2271  1.4650  1.3707
 2770SOL    MW411085   2.288   1.286   4.693 -0.3095  0.4245  0.0682
 2771SOL     OW11086   2.479   1.328   4.514  0.1955  0.0779 -0.0882
 2771SOL    HW211087   2.552   1.268   4.529  1.0207  0.5308 -2.0646
 2771SOL    HW311088   2.512   1.413   4.540  0.9202  0.5226 -2.3179
 2771SOL    MW411089   2.493   1.331   4.519  0.4001  0.1963 -0.6437
 2772SOL     OW11090   2.563   1.578   4.579  0.0206 -0.0336  0.5041
 2772SOL    HW211091   2.629   1.645   4.558  0.6281 -0.3326  1.4420
 2772SOL    HW311092   2.482   1.627   4.589  0.0335  0.3093 -0.9315
 2772SOL    MW411093   2.561   1.594   4.577  0.1025 -0.0280  0.4382
 2773SOL     OW11094   2.307   1.727   4.559 -0.3845 -0.2245 -0.1593
 2773SOL    HW211095   2.278   1.815   4.583 -0.5676  0.1528 -1.7348
 2773SOL    HW311096   2.242   1.668   4.598  0.2675  0.2599  1.7267
 2773SOL    MW411097   2.295   1.731   4.568 -0.3226 -0.1109 -0.1183
 2774SOL     OW11098   2.233   1.984   4.636 -0.4857 -0.0515 -0.6121
 2774SOL    HW211099   2.143   1.971   4.608 -0.3574  0.1226 -1.1158
 2774SOL    HW311100   2.231   1.976   4.731 -1.0267 -0.0818 -0.6285
 2774SOL    MW411101   2.221   1.981   4.645 -0.5400 -0.0324 -0.6804
 2775SOL     OW11102   2.466   2.134   4.524  0.1859  0.2672 -0.1474
 2775SOL    HW211103   2.382   2.101   4.555 -0.3539 -0.5984 -2.4317
 2775SOL    HW311104   2.531   2.077   4.565 -0.5079 -0.9714 -0.7473
 2775SOL    MW411105   2.464   2.123   4.534  0.0231 -0.0105 -0.5283
 2776SOL     OW11106   2.760   2.465   4.464  0.0235  0.0735  0.3495
 2776SOL    HW211107   2.666   2.460   4.478  0.2422 -0.6873  1.6512
 2776SOL    HW311108   2.782   2.557   4.476 -0.5134  0.2019  0.3485
 2776SOL    MW411109   2.751   2.476   4.467 -0.0186 -0.0098  0.5207
 2777SOL     OW11110   2.447   2.625   4.806 -0.0557 -0.4297 -0.2916
 2777SOL    HW211111   2.513   2.693   4.794 -0.0992 -0.5255 -1.0941
 2777SOL    HW311112   2.475   2.554   4.749 -0.0158 -1.0890  0.5368
 2777SOL    MW411113   2.459   2.625   4.797 -0.0560 -0.5293 -0.2880
 2778SOL     OW11114   2.038   2.901   4.537  0.6706  0.3171  0.1636
 2778SOL    HW211115   2.008   2.975   4.590  0.6930  0.8370 -0.5379
 2778SOL    HW311116   2.116   2.869   4.582  1.1361  1.2455  0.0297
 2778SOL    MW411117   2.044   2.907   4.550  0.7348  0.5081  0.0534
 2779SOL     OW11118   2.449   2.879   4.493  0.2839 -0.3035  0.5728
 2779SOL    HW211119   2.382   2.819   4.524  1.2358 -1.7124 -0.0485
 2779SOL    HW311120   2.419   2.966   4.520 -0.4683 -1.1875  2.6196
 2779SOL    MW411121   2.436   2.883   4.501  0.3099 -0.6058  0.7606
 2780SOL     OW11122   2.358   3.152   4.596 -0.7216  0.0297 -0.3933
 2780SOL    HW211123   2.432   3.199   4.557  1.1877 -1.5979  1.1742
 2780SOL    HW311124   2.339   3.199   4.677 -1.9647  0.8973 -1.1519
 2780SOL    MW411125   2.365   3.164   4.601 -0.6335 -0.0706 -0.2866
 2781SOL     OW11126   1.335   4.288   4.826 -0.0006  0.2634  0.1232
 2781SOL    HW211127   1.331   4.368   4.773  2.0724  0.1787 -0.2119
 2781SOL    HW311128   1.267   4.232   4.789  1.8564 -0.0735 -3.0361
 2781SOL    MW411129   1.326   4.291   4.814  0.5178  0.2079 -0.3376
 2782SOL     OW11130   2.685   3.941   4.505 -0.0098 -0.1731 -0.1802
 2782SOL    HW211131   2.597   3.976   4.518  0.4705  1.3273 -0.8402
 2782SOL    HW311132   2.714   3.979   4.422  1.5007 -0.1477  0.3373
 2782SOL    MW411133   2.677   3.951   4.496  0.2530  0.0281 -0.1993
 2783SOL     OW11134   2.173   3.355   4.843 -0.1822 -0.4529 -0.2945
 2783SOL    HW211135   2.136   3.351   4.931 -0.5381 -1.8793 -0.4939
 2783SOL    HW311136   2.211   3.443   4.836 -2.0545  0.4295  0.5023
 2783SOL    MW411137   2.173   3.366   4.853 -0.4761 -0.5245 -0.2155
 2784SOL     OW11138   3.348   3.966   4.866  0.1384 -0.2287  0.1801
 2784SOL    HW211139   3.313   4.055   4.877  0.3342  0.0221 -1.2344
 2784SOL    HW311140   3.307   3.916   4.937 -0.6138  0.8008  0.4885
 2784SOL    MW411141   3.338   3.971   4.877  0.0648 -0.0598  0.0339
 2785SOL     OW11142   3.077   3.963   4.505 -0.6410 -0.4451  0.0589
 2785SOL    HW211143   3.013   3.891   4.507 -1.5478  0.3714  1.0624
 2785SOL    HW311144   3.154   3.927   4.548 -0.7815 -1.1008 -0.2272
 2785SOL    MW411145   3.078   3.949   4.511 -0.7794 -0.4239  0.1535
 2786SOL     OW11146   2.415   4.064   4.545  0.5408 -0.3229 -0.0135
 2786SOL    HW211147   2.378   4.132   4.601  0.8036 -1.3217  1.4031
 2786SOL    HW311148   2.373   4.077   4.460 -1.1599  0.1400  0.8838
 2786SOL    MW411149   2.405   4.074   4.541  0.3510 -0.3939  0.2923
 2787SOL     OW11150   2.328   4.299   4.693 -0.8298 -0.0706  0.0195
 2787SOL    HW211151   2.316   4.352   4.615 -1.7722  0.0054  0.2111
 2787SOL    HW311152   2.393   4.346   4.745 -1.1132  0.5142 -0.1526
 2787SOL    MW411153   2.335   4.312   4.690 -0.9916  0.0167  0.0224
 2788SOL     OW11154   3.057   0.489   4.455  0.1639  0.0552  0.3333
 2788SOL    HW211155   3.040   0.496   4.361 -1.2362  0.1226  0.5875
 2788SOL    HW311156   3.149   0.511   4.464  0.3366 -0.0500 -1.0399
 2788SOL    MW411157   3.067   0.493   4.443  0.0019  0.0502  0.1855
 2789SOL     OW11158   2.899   0.018   4.577 -0.2788 -0.2127 -0.8648
 2789SOL    HW211159   2.964   0.079   4.541  0.2537  0.1954  0.7635
 2789SOL    HW311160   2.816   0.067   4.572 -0.0443  0.2146 -0.6120
 2789SOL    MW411161   2.896   0.033   4.571 -0.1779 -0.1025 -0.6166
 2790SOL     OW11162   3.058   0.216   4.490 -0.0751 -0.4841  0.2521
 2790SOL    HW211163   3.058   0.312   4.490  0.5137 -0.4743 -0.9728
 2790SOL    HW311164   3.128   0.192   4.551  0.1377 -0.1257  0.1505
 2790SOL    MW411165   3.067   0.225   4.498  0.0308 -0.4355  0.0772
 2791SOL     OW11166   2.708   0.948   4.507 -0.3896 -0.4808  0.0243
 2791SOL    HW211167   2.772   0.882   4.534  1.2012  2.0511  2.6440
 2791SOL    HW311168   2.703   0.939   4.412  3.4299 -1.0873 -0.1668
 2791SOL    MW411169   2.715   0.938   4.498  0.3240 -0.2268  0.3448
 2792SOL     OW11170   3.577   0.675   4.772 -0.0406  0.0029  0.1091
 2792SOL    HW211171   3.659   0.709   4.738 -0.4624 -0.1006 -1.0153
 2792SOL    HW311172   3.578   0.582   4.750  0.0918 -0.2639  1.1949
 2792SOL    MW411173   3.588   0.667   4.765 -0.0789 -0.0460  0.1044
 2793SOL     OW11174   2.226   0.913   4.479 -0.0718  0.0330 -0.1790
 2793SOL    HW211175   2.187   0.996   4.505 -0.7414 -0.1356 -0.6218
 2793SOL    HW311176   2.175   0.847   4.526  1.0665 -0.0806  0.9054
 2793SOL    MW411177   2.214   0.915   4.489 -0.0098 -0.0042 -0.0944
 2794SOL     OW11178   2.767   1.207   4.557 -0.2544 -0.3683 -0.1171
 2794SOL    HW211179   2.843   1.238   4.508  0.0909 -0.9420  0.0475
 2794SOL    HW311180   2.757   1.116   4.529  1.5643 -1.5364  2.8014
 2794SOL    MW411181   2.776   1.199   4.547  0.0312 -0.5981  0.2899
 2795SOL     OW11182   3.005   1.339   4.455 -0.3802  0.0218 -0.0868
 2795SOL    HW211183   3.000   1.429   4.488  2.5218  0.8038 -1.5892
 2795SOL    HW311184   2.986   1.347   4.362  2.7522 -0.4110 -0.8427
 2795SOL    MW411185   3.002   1.352   4.447  0.4158  0.0678 -0.3848
 2796SOL     OW11186   2.968   1.586   4.574 -0.2214 -0.3368 -0.0011
 2796SOL    HW211187   2.908   1.654   4.545  0.7512  0.9968  1.0530
 2796SOL    HW311188   2.917   1.533   4.636 -0.7884 -0.2110 -0.3573
 2796SOL    MW411189   2.954   1.588   4.578 -0.1681 -0.1442  0.0916
 2797SOL     OW11190   2.763   1.778   4.517  0.2838  0.0914  0.4795
 2797SOL    HW211191   2.735   1.853   4.569 -0.1104 -0.1377  0.6004
 2797SOL    HW311192   2.744   1.802   4.427 -0.5058 -0.1440  0.5777
 2797SOL    MW411193   2.757   1.791   4.512  0.1278  0.0303  0.5078
 2798SOL     OW11194   2.719   2.030   4.652 -0.0061 -0.1013 -0.2429
 2798SOL    HW211195   2.721   2.046   4.747 -0.8523 -0.2757 -0.1927
 2798SOL    HW311196   2.792   2.082   4.618  1.1930 -1.1470  0.6598
 2798SOL    MW411197   2.729   2.039   4.660  0.0408 -0.2623 -0.1173
 2799SOL     OW11198   2.897   2.195   4.503  0.0878  0.1532 -0.2297
 2799SOL    HW211199   2.858   2.279   4.480  0.3135 -0.0032 -1.2390
 2799SOL    HW311200   2.910   2.151   4.418 -1.1042 -1.3725  0.3564
 2799SOL    MW411201   2.894   2.200   4.488 -0.0396 -0.0684 -0.2856
 2800SOL     OW11202   3.148   2.219   4.615  0.0768 -0.0878  0.2438
 2800SOL    HW211203   3.132   2.242   4.706 -1.5563  0.6956 -0.2236
 2800SOL    HW311204   3.062   2.223   4.574  0.4842 -2.4108 -0.8953
 2800SOL    MW411205   3.134   2.223   4.622 -0.0849 -0.2906  0.0310
 2801SOL     OW11206   2.492   2.432   4.586  0.3441 -0.6446  0.2859
 2801SOL    HW211207   2.500   2.338   4.571 -0.8741 -0.4350 -2.0936
 2801SOL    HW311208   2.400   2.452   4.564  0.2227  0.8898  2.0472
 2801SOL    MW411209   2.481   2.423   4.581  0.1674 -0.4146  0.2036
 2802SOL     OW11210   3.009   2.981   4.661 -0.1473 -0.3937 -0.2338
 2802SOL    HW211211   3.078   3.040   4.630 -0.6824 -0.5667 -1.8314
 2802SOL    HW311212   3.041   2.893   4.641 -0.1250 -0.5529  0.4996
 2802SOL    MW411213   3.022   2.977   4.654 -0.2148 -0.4375 -0.3481
 2803SOL     OW11214   2.647   2.821   4.663 -0.2783  0.1089 -0.3292
 2803SOL    HW211215   2.680   2.903   4.699 -0.7565  0.3589 -0.4556
 2803SOL    HW311216   2.578   2.847   4.601  0.0400 -0.3495 -0.8871
 2803SOL    MW411217   2.642   2.835   4.660 -0.2992  0.0815 -0.4191
 2804SOL     OW11218   2.602   3.256   4.550  0.0679 -0.1643  0.4552
 2804SOL    HW211219   2.644   3.190   4.605 -0.2778 -0.1359  0.7589
 2804SOL    HW311220   2.640   3.244   4.463  0.5469 -0.2736  0.6830
 2804SOL    MW411221   2.612   3.246   4.546  0.0856 -0.1750  0.5255
 2805SOL     OW11222   2.756   3.070   4.730  0.0777  0.7491  0.1085
 2805SOL    HW211223   2.845   3.060   4.694  0.2690 -0.9681  1.0140
 2805SOL    HW311224   2.769   3.122   4.810  0.0817  1.5975 -0.4269
 2805SOL    MW411225   2.770   3.076   4.736  0.1035  0.6344  0.1574
 2806SOL     OW11226   2.867   3.738   4.513 -0.1913  0.0857 -0.2085
 2806SOL    HW211227   2.790   3.795   4.508 -0.7389 -0.7969 -2.1324
 2806SOL    HW311228   2.838   3.663   4.566 -0.6047 -0.1470 -0.7587
 2806SOL    MW411229   2.853   3.735   4.519 -0.3185 -0.0618 -0.5345
 2807SOL     OW11230   3.320   3.894   4.604  0.0098 -0.1773  0.0293
 2807SOL    HW211231   3.371   3.814   4.593  0.0574 -0.2745  0.9440
 2807SOL    HW311232   3.336   3.922   4.694 -0.4856  0.5302 -0.0908
 2807SOL    MW411233   3.329   3.887   4.615 -0.0491 -0.0968  0.1340
 2808SOL     OW11234   3.896   3.839   4.672  0.1311  0.7082  0.3244
 2808SOL    HW211235   3.904   3.778   4.745 -1.5105  0.8014  0.5959
 2808SOL    HW311236   3.857   3.787   4.602  0.4261  0.9733 -0.0340
 2808SOL    MW411237   3.892   3.824   4.673 -0.0465  0.7555  0.3128
 2809SOL     OW11238   2.708   3.515   4.614  0.0127 -0.0880  0.1315
 2809SOL    HW211239   2.631   3.568   4.596  0.7756  0.8715 -0.3197
 2809SOL    HW311240   2.677   3.425   4.605 -1.1117  0.2793  0.1859
 2809SOL    MW411241   2.694   3.510   4.611 -0.0348  0.0868  0.0792
 2810SOL     OW11242   2.911   4.148   4.644 -0.0810  0.0367 -0.3272
 2810SOL    HW211243   2.837   4.090   4.662 -0.7489  0.5173 -1.4313
 2810SOL    HW311244   2.981   4.090   4.614 -0.7858 -0.2057 -1.5493
 2810SOL    MW411245   2.910   4.133   4.642 -0.2623  0.0682 -0.6342
 2811SOL     OW11246   2.974   4.417   4.523  0.1808 -0.2998  0.1354
 2811SOL    HW211247   2.925   4.347   4.566  0.1447 -1.6185 -2.0224
 2811SOL    HW311248   2.929   4.497   4.550 -0.4782 -1.1769  1.6833
 2811SOL    MW411249   2.962   4.419   4.532  0.0889 -0.5898  0.0553
 2812SOL     OW11250   3.345   0.527   4.461 -0.6186  0.0514 -0.2383
 2812SOL    HW211251   3.381   0.541   4.374  1.3668 -1.9677  0.2305
 2812SOL    HW311252   3.347   0.614   4.501  0.5565  0.5866 -1.4231
 2812SOL    MW411253   3.350   0.541   4.455 -0.2015 -0.1444 -0.3333
 2813SOL     OW11254   2.452   0.582   4.595  0.5435  0.2031 -0.3334
 2813SOL    HW211255   2.539   0.549   4.575  0.2583  0.3765 -1.9578
 2813SOL    HW311256   2.465   0.676   4.608  0.7760  0.0450  0.6390
 2813SOL    MW411257   2.465   0.590   4.594  0.5364  0.2052 -0.4196
 2814SOL     OW11258   2.338   1.044   4.798  0.2666 -0.4497 -1.2446
 2814SOL    HW211259   2.385   0.989   4.735 -0.4690 -2.0081 -0.4519
 2814SOL    HW311260   2.275   0.986   4.839 -0.6283  1.0261 -0.4668
 2814SOL    MW411261   2.336   1.029   4.795  0.0517 -0.4606 -1.0376
 2815SOL     OW11262   2.684   0.425   4.460 -0.1480  0.1401  0.2866
 2815SOL    HW211263   2.692   0.329   4.468 -0.7095 -0.0059 -0.9592
 2815SOL    HW311264   2.772   0.457   4.480  0.4098 -0.7314 -0.7384
 2815SOL    MW411265   2.697   0.416   4.464 -0.1483  0.0058 -0.0129
 2816SOL     OW11266   3.395   0.777   4.590  0.1286  0.2509 -0.0311
 2816SOL    HW211267   3.467   0.813   4.539  0.1203 -0.7038 -0.7441
 2816SOL    HW311268   3.437   0.734   4.665  0.2591  0.2626 -0.0984
 2816SOL    MW411269   3.410   0.776   4.593  0.1452  0.1265 -0.1340
 2817SOL     OW11270   3.447   1.283   4.508  0.6309  0.1909  0.3762
 2817SOL    HW211271   3.372   1.265   4.566  0.2906 -1.0124 -0.4234
 2817SOL    HW311272   3.519   1.233   4.546  0.4621 -0.4277 -0.1160
 2817SOL    MW411273   3.446   1.274   4.521  0.5639 -0.0496  0.2050
 2818SOL     OW11274   2.773   1.435   4.721 -0.2744  0.0997  0.0494
 2818SOL    HW211275   2.697   1.473   4.676 -0.9804 -0.5831  0.6497
 2818SOL    HW311276   2.795   1.357   4.669 -1.7265 -1.2631  1.4410
 2818SOL    MW411277   2.766   1.430   4.708 -0.5591 -0.1704  0.3123
 2819SOL     OW11278   3.960   1.030   4.682  0.0910  0.4404  0.5533
 2819SOL    HW211279   4.000   1.081   4.752  0.0569  1.5022 -0.1738
 2819SOL    HW311280   4.032   1.013   4.621 -0.0528  0.2884  0.4254
 2819SOL    MW411281   3.975   1.035   4.683  0.0677  0.5605  0.4406
 2820SOL     OW11282   3.465   1.556   4.632  0.1948  0.2535 -0.3913
 2820SOL    HW211283   3.394   1.600   4.586  0.6731  1.4796  0.0205
 2820SOL    HW311284   3.468   1.468   4.593 -0.9782  0.4677 -0.9957
 2820SOL    MW411285   3.456   1.550   4.621  0.1030  0.4436 -0.4168
 2821SOL     OW11286   3.244   1.676   4.497  0.2091  0.6549 -0.2535
 2821SOL    HW211287   3.252   1.769   4.517 -0.7736  0.5074  0.9012
 2821SOL    HW311288   3.169   1.646   4.549  0.7539 -0.8629 -0.2941
 2821SOL    MW411289   3.235   1.684   4.507  0.1512  0.4350 -0.1063
 2822SOL     OW11290   3.271   1.965   4.520  0.1045 -0.0049  0.4329
 2822SOL    HW211291   3.226   2.044   4.550  1.0815  0.9401 -0.5528
 2822SOL    HW311292   3.286   1.980   4.427  0.8155 -1.1007  0.3683
 2822SOL    MW411293   3.267   1.977   4.512  0.3273 -0.0247  0.2942
 2823SOL     OW11294   3.708   1.852   4.682 -0.0060 -0.1422  0.3136
 2823SOL    HW211295   3.670   1.916   4.622  0.0822 -0.7675 -0.4170
 2823SOL    HW311296   3.639   1.835   4.746 -0.6187 -0.5543 -0.4483
 2823SOL    MW411297   3.694   1.858   4.683 -0.0751 -0.2791  0.1168
 2824SOL     OW11298   2.828   2.738   4.483  0.2282  0.1079 -0.1338
 2824SOL    HW211299   2.774   2.784   4.547 -0.7276  1.1492 -1.6739
 2824SOL    HW311300   2.918   2.747   4.517 -0.0226  2.4999 -0.0518
 2824SOL    MW411301   2.833   2.745   4.496  0.0689  0.5608 -0.3266
 2825SOL     OW11302   3.519   2.530   4.475  0.1277  0.1441  0.5785
 2825SOL    HW211303   3.432   2.510   4.511  0.1687 -0.6535  0.2372
 2825SOL    HW311304   3.536   2.620   4.503 -0.5020  0.0576  1.2586
 2825SOL    MW411305   3.509   2.539   4.483  0.0498  0.0274  0.6232
 2826SOL     OW11306   3.249   2.472   4.507 -0.2530 -0.2331  0.2919
 2826SOL    HW211307   3.204   2.461   4.423  0.5486 -0.1449 -0.1554
 2826SOL    HW311308   3.249   2.384   4.545  1.0067 -0.6666 -0.6469
 2826SOL    MW411309   3.243   2.459   4.501  0.0191 -0.2787  0.1087
 2827SOL     OW11310   3.620   2.803   4.541 -0.2105 -0.0003  0.2450
 2827SOL    HW211311   3.660   2.888   4.523 -1.1470  0.4398  0.2387
 2827SOL    HW311312   3.693   2.748   4.569  0.5044  0.6280 -0.3554
 2827SOL    MW411313   3.635   2.807   4.542 -0.2398  0.1409  0.1650
 2828SOL     OW11314   3.220   3.127   4.533  0.5078 -0.1146 -0.0156
 2828SOL    HW211315   3.270   3.048   4.512  2.7798  1.5336 -1.0804
 2828SOL    HW311316   3.193   3.161   4.448  1.2161  1.2956  0.3185
 2828SOL    MW411317   3.223   3.121   4.519  0.9012  0.2892 -0.1121
 2829SOL     OW11318   3.363   2.894   4.478  0.1944 -0.0186  0.4330
 2829SOL    HW211319   3.355   2.875   4.384 -0.2506  1.3222  0.1811
 2829SOL    HW311320   3.449   2.862   4.502 -0.0038 -1.1034 -0.2579
 2829SOL    MW411321   3.373   2.887   4.469  0.1094  0.0153  0.3090
 2830SOL     OW11322   4.052   2.594   4.543 -0.2229 -0.4478  0.3264
 2830SOL    HW211323   4.030   2.592   4.450 -1.4126  1.3692  0.5490
 2830SOL    HW311324   4.095   2.678   4.556  1.6853 -1.4897  1.0725
 2830SOL    MW411325   4.055   2.604   4.533 -0.1283 -0.3452  0.4544
 2831SOL     OW11326   3.654   3.249   4.532  0.2684  0.0500  0.3996
 2831SOL    HW211327   3.705   3.327   4.553 -0.3652  0.6840 -0.3751
 2831SOL    HW311328   3.621   3.265   4.443 -2.1219  0.1156  1.2714
 2831SOL    MW411329   3.656   3.261   4.523 -0.1307  0.1423  0.4120
 2832SOL     OW11330   3.510   4.082   4.469  0.3202 -0.2769  0.5906
 2832SOL    HW211331   3.575   4.078   4.539 -0.6115 -0.5832  1.4510
 2832SOL    HW311332   3.437   4.028   4.500 -0.5207  0.3954 -0.1645
 2832SOL    MW411333   3.509   4.075   4.483  0.0863 -0.2289  0.6046
 2833SOL     OW11334   3.219   4.215   4.766 -0.0864  0.4976 -0.3622
 2833SOL    HW211335   3.232   4.309   4.763 -1.5513  0.7195 -0.1859
 2833SOL    HW311336   3.125   4.204   4.778  0.0968 -0.9807 -0.1353
 2833SOL    MW411337   3.209   4.226   4.767 -0.2556  0.3314 -0.3085
 2834SOL     OW11338   3.234   4.457   4.629 -0.3160  0.5187 -0.0107
 2834SOL    HW211339   3.300   4.415   4.573 -1.1511 -0.9375  0.0765
 2834SOL    HW311340   3.151   4.442   4.584 -1.0464 -0.9289  1.7468
 2834SOL    MW411341   3.232   4.450   4.616 -0.5226  0.1354  0.2327
 2835SOL     OW11342   3.436   4.353   4.476 -0.1093  0.1109  0.3863
 2835SOL    HW211343   3.453   4.259   4.473 -0.2669  0.0207  2.0307
 2835SOL    HW311344   3.523   4.393   4.477 -0.0393 -0.0412  0.3202
 2835SOL    MW411345   3.450   4.346   4.476 -0.1206  0.0792  0.5937
 2836SOL     OW11346   3.690   4.034   4.681  0.6237  0.1620  0.5315
 2836SOL    HW211347   3.759   3.969   4.670  0.5688  0.3085 -0.8019
 2836SOL    HW311348   3.628   3.994   4.742  0.9910 -0.6968  0.3463
 2836SOL    MW411349   3.691   4.020   4.688  0.6649  0.0677  0.3314
 2837SOL     OW11350   3.499   0.141   4.719 -0.2486 -0.3973 -0.0316
 2837SOL    HW211351   3.534   0.128   4.808 -0.2573 -0.9254 -0.0990
 2837SOL    HW311352   3.406   0.117   4.727 -0.9579  2.3893  0.4742
 2837SOL    MW411353   3.491   0.136   4.732 -0.3433 -0.0993  0.0257
 2838SOL     OW11354   3.176   0.909   4.491 -0.4584  0.4659  0.1915
 2838SOL    HW211355   3.188   0.993   4.537 -0.0609  0.4609  0.1001
 2838SOL    HW311356   3.236   0.849   4.535 -0.9454  0.1565  0.4363
 2838SOL    MW411357   3.186   0.913   4.503 -0.4702  0.4244  0.2117
 2839SOL     OW11358   3.206   1.160   4.619  0.4053 -0.0926 -0.7042
 2839SOL    HW211359   3.212   1.161   4.715 -0.0939  0.3901 -0.6743
 2839SOL    HW311360   3.144   1.230   4.598 -0.4026 -0.9678 -1.3078
 2839SOL    MW411361   3.199   1.169   4.629  0.2327 -0.1444 -0.7806
 2840SOL     OW11362   4.113   1.440   4.602  0.0720 -0.5773  0.4922
 2840SOL    HW211363   4.159   1.373   4.552 -1.2686 -0.4560 -0.9641
 2840SOL    HW311364   4.020   1.424   4.583 -0.2584  1.7849 -0.0233
 2840SOL    MW411365   4.107   1.429   4.593 -0.1483 -0.2497  0.2317
 2841SOL     OW11366   3.728   1.164   4.576 -0.0159  0.1447  0.7710
 2841SOL    HW211367   3.767   1.251   4.579  0.2258  0.0758 -0.1338
 2841SOL    HW311368   3.800   1.105   4.600 -0.3660  0.2380  2.0954
 2841SOL    MW411369   3.743   1.167   4.579 -0.0303  0.1481  0.8254
 2842SOL     OW11370   4.126   0.962   4.486 -0.2162 -0.0416  0.1654
 2842SOL    HW211371   4.197   0.914   4.529  0.5822  0.3887 -0.6508
 2842SOL    HW311372   4.104   0.908   4.409 -0.4323  0.0751  0.1449
 2842SOL    MW411373   4.133   0.948   4.481 -0.1397  0.0306  0.0548
 2843SOL     OW11374   4.292   0.563   4.577  0.1820 -0.1021  0.1941
 2843SOL    HW211375   4.223   0.511   4.619  1.2739 -1.0493  0.8332
 2843SOL    HW311376   4.282   0.545   4.484  1.6806 -2.9163  0.5308
 2843SOL    MW411377   4.282   0.554   4.570  0.5240 -0.5983  0.3228
 2844SOL     OW11378   3.669   1.651   4.494 -0.6450  0.0403  0.0074
 2844SOL    HW211379   3.712   1.713   4.553 -1.5850  0.1428  0.6147
 2844SOL    HW311380   3.589   1.626   4.541 -0.4900 -1.2868 -0.4322
 2844SOL    MW411381   3.664   1.656   4.508 -0.7489 -0.1212  0.0291
 2845SOL     OW11382   3.978   1.854   4.631 -0.0902  0.4030 -0.3088
 2845SOL    HW211383   3.889   1.851   4.667 -0.1293  0.3268 -0.4108
 2845SOL    HW311384   4.027   1.910   4.692 -0.2406  0.5506 -0.3228
 2845SOL    MW411385   3.973   1.861   4.644 -0.1149  0.4126 -0.3242
 2846SOL     OW11386   3.541   2.038   4.556  0.1225 -0.1663  0.0751
 2846SOL    HW211387   3.577   2.063   4.471  0.3902 -2.3356 -0.4923
 2846SOL    HW311388   3.462   1.988   4.535  0.4205 -1.0825  1.0723
 2846SOL    MW411389   3.535   2.035   4.542  0.1972 -0.5734  0.1321
 2847SOL     OW11390   4.164   2.041   4.750 -0.2810  0.4366  0.4279
 2847SOL    HW211391   4.146   2.132   4.774  0.6084  0.5179  0.8091
 2847SOL    HW311392   4.224   2.048   4.675 -0.0710  0.1650  0.5696
 2847SOL    MW411393   4.170   2.054   4.743 -0.1359  0.4117  0.4973
 2848SOL     OW11394   4.452   1.727   4.491  0.1230 -0.0911 -0.0277
 2848SOL    HW211395   4.478   1.714   4.400 -1.6654  1.6133 -0.8200
 2848SOL    HW311396   4.357   1.717   4.490  0.0852 -0.0531  1.6551
 2848SOL    MW411397   4.443   1.724   4.479 -0.1178  0.1388  0.0892
 2849SOL     OW11398   3.967   2.292   4.517  0.1577 -0.3750 -0.1539
 2849SOL    HW211399   4.008   2.320   4.598  0.3432 -0.4212 -0.2311
 2849SOL    HW311400   3.873   2.303   4.532  0.1959 -0.3136  0.0393
 2849SOL    MW411401   3.960   2.297   4.530  0.1869 -0.3729 -0.1388
 2850SOL     OW11402   3.789   2.609   4.640  0.1552  0.5721  0.5517
 2850SOL    HW211403   3.756   2.520   4.631 -1.3242  1.3398 -2.1251
 2850SOL    HW311404   3.879   2.605   4.605 -0.1448  0.2537 -0.1981
 2850SOL    MW411405   3.797   2.597   4.634 -0.0796  0.6313  0.0992
 2851SOL     OW11406   3.775   3.013   4.469  0.3056  0.4741  0.1445
 2851SOL    HW211407   3.855   3.013   4.522  0.1863  0.3339  0.3287
 2851SOL    HW311408   3.738   3.100   4.480 -1.7223 -0.6934  3.3752
 2851SOL    MW411409   3.781   3.024   4.478  0.0222  0.3018  0.5946
 2852SOL     OW11410   4.010   2.993   4.622 -0.1996 -0.2929 -0.7457
 2852SOL    HW211411   3.988   2.964   4.711  0.2121  0.0634 -0.5257
 2852SOL    HW311412   4.082   2.937   4.596  0.4750  0.3973 -0.3908
 2852SOL    MW411413   4.016   2.982   4.631 -0.0563 -0.1547 -0.6700
 2853SOL     OW11414   3.371   3.392   4.598 -0.0829  0.6560  0.3355
 2853SOL    HW211415   3.301   3.327   4.589 -1.5139  2.1418  0.4526
 2853SOL    HW311416   3.451   3.340   4.606 -1.1356 -1.0779 -0.0395
 2853SOL    MW411417   3.372   3.377   4.598 -0.4106  0.6232  0.3014
 2854SOL     OW11418   3.882   3.424   4.576  0.1260  0.0705  0.2440
 2854SOL    HW211419   3.932   3.463   4.647  0.5881 -0.3324  0.1432
 2854SOL    HW311420   3.945   3.369   4.530 -0.1858  0.2879 -0.4451
 2854SOL    MW411421   3.897   3.422   4.579  0.1459  0.0463  0.1392
 2855SOL     OW11422   3.470   3.668   4.547  0.2259  0.4815 -0.7578
 2855SOL    HW211423   3.437   3.586   4.583  2.0659  0.2307  0.4474
 2855SOL    HW311424   3.565   3.659   4.550  0.5927  3.9689  2.7726
 2855SOL    MW411425   3.478   3.656   4.552  0.5169  0.9084 -0.1335
 2856SOL     OW11426   3.745   3.663   4.527  0.1673  0.2618 -0.2962
 2856SOL    HW211427   3.751   3.682   4.434 -0.1898  0.7808 -0.2201
 2856SOL    HW311428   3.797   3.584   4.540  0.5185  0.3996 -0.8716
 2856SOL    MW411429   3.753   3.655   4.517  0.1664  0.3486 -0.3619
 2857SOL     OW11430   0.101   2.895   4.550  0.1664 -0.4246 -0.1985
 2857SOL    HW211431   0.082   2.988   4.546 -0.4474 -0.5983 -1.6577
 2857SOL    HW311432   0.136   2.873   4.464 -0.4748 -1.7007 -0.1610
 2857SOL    MW411433   0.103   2.904   4.538  0.0008 -0.6158 -0.3867
 2858SOL     OW11434   4.104   3.971   4.533  0.1733 -0.1901 -0.1774
 2858SOL    HW211435   4.123   4.046   4.590  0.5605  0.2749 -0.9170
 2858SOL    HW311436   4.034   3.924   4.579 -0.3923  0.8725  0.0742
 2858SOL    MW411437   4.097   3.975   4.547  0.1493  0.0114 -0.2418
 2859SOL     OW11438   3.714   4.446   4.500  0.0615  0.0387 -0.4615
 2859SOL    HW211439   3.786   4.444   4.437 -0.7508 -1.5600 -1.3960
 2859SOL    HW311440   3.702   4.538   4.521  0.0184  0.6724 -3.0838
 2859SOL    MW411441   3.722   4.458   4.494 -0.0513 -0.0877 -0.9308
 2860SOL     OW11442   3.229   0.056   4.683  0.1292 -0.1087  0.2507
 2860SOL    HW211443   3.236  -0.035   4.655 -2.0396 -0.8036  1.8842
 2860SOL    HW311444   3.155   0.058   4.743  0.9117  2.5042  1.2253
 2860SOL    MW411445   3.220   0.044   4.687 -0.0536  0.1444  0.5946
 2861SOL     OW11446   3.608   0.928   4.488  0.5679  0.4777 -0.1132
 2861SOL    HW211447   3.644   1.013   4.513  0.5698  0.2344  0.7256
 2861SOL    HW311448   3.623   0.923   4.393  1.2067  1.1013 -0.0514
 2861SOL    MW411449   3.615   0.939   4.479  0.6523  0.5279  0.0067
 2862SOL     OW11450   3.801   0.784   4.612  0.7985  0.5043  0.0664
 2862SOL    HW211451   3.871   0.846   4.631  0.7123  0.4408  0.5988
 2862SOL    HW311452   3.731   0.836   4.572  0.2477  0.9487  1.6083
 2862SOL    MW411453   3.801   0.799   4.609  0.7145  0.5546  0.3400
 2863SOL     OW11454   0.099   0.496   4.585 -0.0413  0.0946  0.0617
 2863SOL    HW211455   0.006   0.517   4.592 -0.3864 -1.0030 -1.0663
 2863SOL    HW311456   0.118   0.501   4.491  1.3029  1.3753  0.3749
 2863SOL    MW411457   0.089   0.500   4.573  0.0905  0.1188 -0.0458
 2864SOL     OW11458   0.325   0.652   4.616 -0.1948 -0.1038  0.0643
 2864SOL    HW211459   0.394   0.613   4.670  0.5126  0.1228 -0.6750
 2864SOL    HW311460   0.254   0.588   4.618  0.2869 -0.6363  0.2906
 2864SOL    MW411461   0.325   0.638   4.624 -0.0379 -0.1441 -0.0033
 2865SOL     OW11462   4.092   0.360   4.622  0.3919 -0.0658  0.2314
 2865SOL    HW211463   4.053   0.276   4.597  0.9208 -0.2496  0.0092
 2865SOL    HW311464   4.022   0.424   4.609 -0.0084 -0.4705  0.3775
 2865SOL    MW411465   4.078   0.357   4.617  0.4086 -0.1434  0.2217
 2866SOL     OW11466   3.847   1.409   4.534 -0.0810  0.2058  0.1502
 2866SOL    HW211467   3.850   1.397   4.439 -0.2950 -0.1244  0.1814
 2866SOL    HW311468   3.790   1.485   4.547 -0.7341 -0.2577  0.0484
 2866SOL    MW411469   3.840   1.417   4.523 -0.1955  0.1010  0.1407
 2867SOL     OW11470   0.027   1.239   4.534 -0.0364  0.1074  0.0824
 2867SOL    HW211471   0.029   1.334   4.546  2.1927 -0.0139  0.8219
 2867SOL    HW311472   0.011   1.205   4.622  0.7681 -0.2607  0.0848
 2867SOL    MW411473   0.025   1.247   4.547  0.3638  0.0429  0.1802
 2868SOL     OW11474   0.336   1.598   4.699  0.0018 -0.1572 -0.1891
 2868SOL    HW211475   0.319   1.617   4.791  0.1393  1.4033 -0.4729
 2868SOL    HW311476   0.387   1.673   4.667  1.0181 -1.2581 -1.2288
 2868SOL    MW411477   0.341   1.610   4.707  0.1540 -0.0966 -0.3633
 2869SOL     OW11478   4.176   1.687   4.507 -0.2997  0.3058  0.3152
 2869SOL    HW211479   4.156   1.598   4.538  0.7655  0.1904  0.7012
 2869SOL    HW311480   4.114   1.743   4.553 -1.7919 -0.3634 -0.8451
 2869SOL    MW411481   4.166   1.682   4.517 -0.3567  0.2022  0.2131
 2870SOL     OW11482   3.123   2.751   4.525  0.0420  0.4163 -0.0056
 2870SOL    HW211483   3.202   2.804   4.519  0.3155 -0.0212 -0.2662
 2870SOL    HW311484   3.155   2.661   4.539 -0.4192  0.3379  0.5884
 2870SOL    MW411485   3.138   2.746   4.526  0.0174  0.3486  0.0381
 2871SOL     OW11486   4.254   2.097   4.237 -0.2503 -0.2867 -0.4300
 2871SOL    HW211487   4.168   2.061   4.219 -0.8900  1.4663 -0.9865
 2871SOL    HW311488   4.267   2.083   4.331 -0.3635 -2.1430 -0.6639
 2871SOL    MW411489   4.245   2.090   4.247 -0.3505 -0.3004 -0.5345
 2872SOL     OW11490   4.296   2.201   4.541 -0.1821 -0.0329 -0.3217
 2872SOL    HW211491   4.377   2.199   4.592 -1.1656 -2.2865  1.2195
 2872SOL    HW311492   4.295   2.288   4.500  1.0302  1.5352  2.8658
 2872SOL    MW411493   4.307   2.212   4.542 -0.1521 -0.1235  0.3023
 2873SOL     OW11494   3.939   2.024   4.413 -0.0939 -0.0800  0.0475
 2873SOL    HW211495   3.958   1.976   4.493  0.3038  0.9079  0.5614
 2873SOL    HW311496   3.957   2.116   4.435 -0.1937  0.2297 -1.1006
 2873SOL    MW411497   3.944   2.030   4.426 -0.0546  0.0911 -0.0362
 2874SOL     OW11498   3.691   2.322   4.560  0.1329 -0.0677  0.4482
 2874SOL    HW211499   3.628   2.377   4.513  1.0387 -0.4835 -1.3288
 2874SOL    HW311500   3.642   2.242   4.580 -0.0256 -0.2721 -0.6714
 2874SOL    MW411501   3.676   2.319   4.556  0.2315 -0.1497  0.0658
 2875SOL     OW11502   4.320   2.544   4.797  0.0395 -0.0822  0.0663
 2875SOL    HW211503   4.380   2.576   4.730  0.2050  1.0613  0.7485
 2875SOL    HW311504   4.376   2.528   4.874 -0.2957 -0.4626  0.2327
 2875SOL    MW411505   4.336   2.546   4.799  0.0172  0.0184  0.1788
 2876SOL     OW11506   4.231   2.847   4.521  0.0536 -0.3115  0.0371
 2876SOL    HW211507   4.313   2.840   4.570  0.0901  0.3887  0.0838
 2876SOL    HW311508   4.258   2.855   4.430  0.0329 -0.3559  0.0277
 2876SOL    MW411509   4.245   2.847   4.516  0.0553 -0.2248  0.0420
 2877SOL     OW11510   4.093   3.250   4.540 -0.1270 -0.0486 -0.1373
 2877SOL    HW211511   4.080   3.244   4.445 -1.6972  0.2092  0.0451
 2877SOL    HW311512   4.043   3.176   4.575 -1.0184  0.9075  0.6065
 2877SOL    MW411513   4.085   3.239   4.532 -0.4525  0.1116 -0.0153
 2878SOL     OW11514   0.211   3.439   4.471  0.1776 -0.0215 -0.0666
 2878SOL    HW211515   0.217   3.489   4.390 -0.4610  0.7485  0.3522
 2878SOL    HW311516   0.128   3.466   4.510  1.2700  0.9351  1.7070
 2878SOL    MW411517   0.201   3.449   4.466  0.2375  0.2062  0.2227
 2879SOL     OW11518   4.127   4.223   4.653  0.0476  0.6897 -0.3444
 2879SOL    HW211519   4.151   4.240   4.744  0.1471  2.2361 -0.6437
 2879SOL    HW311520   4.036   4.254   4.645 -0.0494  0.3242 -0.7029
 2879SOL    MW411521   4.118   4.230   4.664  0.0477  0.8454 -0.4311
 2880SOL     OW11522   3.680   0.064   4.531  0.0583  0.3889  0.0979
 2880SOL    HW211523   3.608   0.099   4.584  0.8060  0.1274  1.2942
 2880SOL    HW311524   3.667   0.104   4.445 -1.1552  0.8371  0.4694
 2880SOL    MW411525   3.669   0.074   4.527 -0.0031  0.4135  0.3047
 2881SOL     OW11526   4.288   3.601   4.855  0.4860 -0.3124  0.2257
 2881SOL    HW211527   4.330   3.686   4.864 -0.0999 -0.2736  3.1359
 2881SOL    HW311528   4.361   3.538   4.857  0.8129  0.0442 -0.4552
 2881SOL    MW411529   4.303   3.604   4.857  0.4516 -0.2604  0.5198
 2882SOL     OW11530   3.555   0.422   4.639 -0.3982  0.0732  0.2287
 2882SOL    HW211531   3.478   0.437   4.584  0.6892  0.2213 -1.2872
 2882SOL    HW311532   3.546   0.332   4.669 -1.9253  0.5579  1.3264
 2882SOL    MW411533   3.544   0.412   4.636 -0.4563  0.1566  0.1736
 2883SOL     OW11534   4.322   4.416   4.238  0.1324  0.2479  0.1919
 2883SOL    HW211535   4.395   4.363   4.207  0.8965  1.5306 -0.2579
 2883SOL    HW311536   4.323   4.406   4.333  1.5588  1.0891  0.2782
 2883SOL    MW411537   4.332   4.408   4.246  0.4210  0.5283  0.1435
   4.49070   4.66690  10.00000
