[ defaults ]
; nbfunc        comb-rule       gen-pairs       fudgeLJ fudgeQQ
1               2               yes             0.5     0.8333

[ atomtypes ]
;name  bond_type    mass    charge   ptype          sigma      epsilon
c3            c3      0.0000  0.0000  A   3.39967e-01  4.57730e-01
h1            h1      0.0000  0.0000  A   2.47135e-01  6.56888e-02
n3            n3      0.0000  0.0000  A   3.25000e-01  7.11280e-01
hn            hn      0.0000  0.0000  A   1.06908e-01  6.56888e-02

[ moleculetype ]
; Name            nrexcl
methylamine  3

[ atoms ]
;   nr       type  resnr residue  atom   cgnr     charge       mass  typeB    chargeB
     1         c3      1    MOL     C1      1    0.35190  12.000000
     2         h1      1    MOL     H1      2   -0.03200   1.000000
     3         h1      1    MOL     H2      3   -0.03200   1.000000
     4         h1      1    MOL     H3      4   -0.03200   1.000000
     5         n3      1    MOL     N1      5   -0.96610  14.000000
     6         hn      1    MOL     H4      6    0.35510   1.000000
     7         hn      1    MOL     H5      7    0.35510   1.000000

[ bonds ]
;  ai    aj funct  r  k
    1     2     1  1.0930e-01  2.8108e+05
    1     3     1  1.0930e-01  2.8108e+05
    1     4     1  1.0930e-01  2.8108e+05
    5     6     1  1.0180e-01  3.2978e+05
    5     7     1  1.0180e-01  3.2978e+05
    1     5     1  1.4700e-01  2.6828e+05

[ pairs ]
;  ai    aj funct
     2      6      1
     2      7      1
     3      6      1
     3      7      1
     4      6      1
     4      7      1

[ angles ]
;  ai    aj    ak funct  theta   cth
    1     5     6     1  1.0992e+02  3.9413e+02
    1     5     7     1  1.0992e+02  3.9413e+02
    2     1     3     1  1.0955e+02  3.2803e+02
    2     1     4     1  1.0955e+02  3.2803e+02
    2     1     5     1  1.0992e+02  4.1338e+02
    3     1     4     1  1.0955e+02  3.2803e+02
    3     1     5     1  1.0992e+02  4.1338e+02
    4     1     5     1  1.0992e+02  4.1338e+02
    6     5     7     1  1.0713e+02  3.4560e+02

[ dihedrals ]
;i  j   k  l	 func	C0  ...  C5
    2    1    5    6      3     1.25520     3.76560     0.00000    -5.02080     0.00000     0.00000	;
    2    1    5    7      3     1.25520     3.76560     0.00000    -5.02080     0.00000     0.00000	;
    3    1    5    6      3     1.25520     3.76560     0.00000    -5.02080     0.00000     0.00000	;
    3    1    5    7      3     1.25520     3.76560     0.00000    -5.02080     0.00000     0.00000	;
    4    1    5    6      3     1.25520     3.76560     0.00000    -5.02080     0.00000     0.00000	;
    4    1    5    7      3     1.25520     3.76560     0.00000    -5.02080     0.00000     0.00000	;


